/*--------------------------------*- C++ -*----------------------------------*\
| =========                 |                                                 |
| \\      /  F ield         | OpenFOAM: The Open Source CFD Toolbox           |
|  \\    /   O peration     | Version:  2412                                  |
|   \\  /    A nd           | Website:  www.openfoam.com                      |
|    \\/     M anipulation  |                                                 |
\*---------------------------------------------------------------------------*/
FoamFile
{
    version     2.0;
    format      ascii;
    arch        "LSB;label=32;scalar=64";
    class       surfaceScalarField;
    location    "0.7";
    object      phi;
}
// * * * * * * * * * * * * * * * * * * * * * * * * * * * * * * * * * * * * * //

dimensions      [0 3 -1 0 0 0 0];

oriented        oriented;

internalField   nonuniform List<scalar> 
25926
(
0.00749578
-0.0252649
0.00745437
-0.0206146
0.00744556
-0.016635
0.00745439
-0.0137206
0.00747049
-0.0110864
0.00748096
-0.00840471
0.00747589
-0.00510368
0.00745061
-0.00131561
0.00740491
0.00267843
0.00734343
0.00646718
0.00727304
0.00968002
0.00720379
0.0120948
0.00714826
0.0134595
0.00711989
0.0136706
0.00712386
0.0127058
0.00715059
0.0110602
0.00718215
0.00929762
0.00720767
0.00798577
0.00722615
0.0069851
0.00724123
0.00632413
0.00725472
0.00566789
0.00726785
0.00521314
0.00727985
0.00462141
0.00729153
0.00429934
0.0073016
0.0037272
0.00731137
0.00350661
0.0073191
0.00292
0.0073268
0.00280922
0.00733202
0.00215593
0.00733781
0.00220833
0.00734057
0.00144135
0.00734475
0.00167808
0.00734508
0.000733003
0.00734803
0.001239
0.00734589
4.27121e-05
0.00734788
0.0008981
0.00734293
-0.000674233
0.00734424
0.000679659
0.00733577
-0.0014414
0.00733561
0.00055845
0.00732064
-0.00216618
0.00731636
0.000916985
0.00729308
-0.00212547
0.00728828
0.00263864
0.00726624
-0.000514999
0.00727798
0.00573559
0.00728197
0.0013738
0.00733481
0.00626407
0.00737241
-0.00176693
0.00744062
-0.00237809
0.00748745
-0.0124082
0.00756636
-0.0338021
0.00761891
-0.0620178
0.00770926
0.0171827
0.00774642
0.0475945
0.00779871
0.0299481
0.00781705
0.0100704
0.00784733
0.0065257
0.00785832
-0.00392401
0.00785616
-0.00336919
0.00782916
-0.0074487
0.00779125
-0.00327474
0.00775034
-0.0043729
0.00771266
-0.000635118
0.00768408
-0.00156513
0.00765673
0.00101853
0.00763588
0.000262635
0.00761048
0.00205564
0.0075894
0.0013275
0.00756374
0.00229195
0.00754412
0.00136631
0.00752433
0.00155674
0.00751505
0.00046069
0.00751227
0.000152435
0.00752327
-0.000987635
0.00754188
-0.00156853
-0.00262538
0.00749541
-0.0251846
0.00745329
-0.0205725
0.00744349
-0.0166252
0.00745123
-0.0137284
0.00746626
-0.0111014
0.00747579
-0.00841424
0.00747009
-0.00509798
0.00744456
-0.00129008
0.00739904
0.00272395
0.00733819
0.00652803
0.00726888
0.00974933
0.00720119
0.0121625
0.0071477
0.013513
0.00712154
0.0136968
0.00712732
0.0127
0.00715492
0.0110326
0.00718653
0.00926602
0.00721182
0.00796049
0.00723014
0.00696678
0.00724519
0.00630907
0.00725869
0.00565438
0.00727185
0.00519998
0.00728387
0.00460939
0.00729555
0.00428766
0.00730562
0.00371713
0.00731538
0.00349685
0.0073231
0.00291227
0.00733079
0.00280153
0.007336
0.00215073
0.00734178
0.00220254
0.00734452
0.0014386
0.00734868
0.00167392
0.00734897
0.000732706
0.00735188
0.0012361
0.0073497
4.48969e-05
0.00735163
0.000896166
0.0073466
-0.000669208
0.00734783
0.000678429
0.00733927
-0.00143283
0.00733897
0.000558745
0.0073239
-0.00215111
0.00731955
0.000921332
0.00729636
-0.00210229
0.00729183
0.00264317
0.00727035
-0.000493514
0.0072828
0.00572314
0.00728754
0.00136906
0.00734059
0.00621102
0.00737753
-0.00180387
0.00744455
-0.0024451
0.00749024
-0.0124538
0.00756696
-0.0338788
0.00761677
-0.0620677
0.00770863
0.0170908
0.00774912
0.047554
0.00780231
0.0298949
0.00781948
0.0100532
0.00784736
0.00649782
0.00785486
-0.00393151
0.00784937
-0.0033637
0.00781945
-0.00741879
0.00777982
-0.00323511
0.007738
-0.00433107
0.00770024
-0.000597365
0.00767186
-0.00153675
0.007645
0.00104539
0.00762466
0.000282978
0.00759997
0.00208033
0.00757979
0.00134769
0.00755541
0.00231633
0.00753742
0.0013843
0.00751975
0.00157441
0.00751278
0.000467655
0.0075124
0.000152819
0.00752512
-0.00100036
0.00754436
-0.00158777
-0.00264902
0.00749505
-0.0251039
0.00745224
-0.0205297
0.00744145
-0.0166144
0.00744812
-0.013735
0.00746209
-0.0111154
0.0074707
-0.00842286
0.00746438
-0.00509166
0.00743862
-0.00126432
0.0073933
0.00276927
0.00733309
0.00658824
0.00726488
0.00981754
0.00719877
0.0122286
0.0071473
0.0135645
0.00712333
0.0137207
0.00713083
0.0126925
0.00715923
0.0110042
0.00719087
0.00923439
0.00721592
0.00793543
0.0072341
0.00694861
0.00724913
0.00629404
0.00726266
0.00564085
0.00727585
0.0051868
0.00728788
0.00459736
0.00729957
0.00427596
0.00730964
0.00370707
0.00731939
0.0034871
0.00732711
0.00290456
0.0073348
0.00279384
0.00734
0.00214553
0.00734577
0.00219677
0.00734849
0.00143588
0.00735263
0.00166979
0.0073529
0.000732437
0.00735576
0.00123323
0.00735353
4.7126e-05
0.00735541
0.000894289
0.00735032
-0.00066412
0.00735147
0.000677278
0.00734281
-0.00142417
0.0073424
0.000559162
0.00732721
-0.00213592
0.00732281
0.000925735
0.00729972
-0.0020792
0.00729546
0.00264743
0.00727452
-0.000472572
0.00728766
0.00571001
0.00729311
0.0013636
0.00734633
0.00615781
0.0073826
-0.00184015
0.00744845
-0.00251095
0.00749303
-0.0124984
0.00756756
-0.0339533
0.0076146
-0.0621147
0.00770789
0.0169975
0.0077516
0.0475103
0.00780563
0.0298408
0.00782162
0.0100372
0.00784713
0.0064723
0.00785123
-0.0039356
0.0078425
-0.00335498
0.00780979
-0.00738608
0.00776857
-0.00319389
0.00772592
-0.00428843
0.00768819
-0.000559633
0.00766008
-0.00150864
0.00763377
0.0010717
0.00761399
0.000302765
0.0075901
0.00210421
0.00757087
0.00136693
0.00754788
0.00233932
0.0075316
0.00140058
0.00751613
0.00158988
0.00751149
0.000472303
0.00751341
0.000150898
0.0075276
-0.00101455
0.00754711
-0.00160727
-0.00267114
0.0074947
-0.0250228
0.00745121
-0.0204862
0.00743946
-0.0166027
0.00744506
-0.0137406
0.00745798
-0.0111283
0.00746569
-0.00843056
0.00745877
-0.00508474
0.00743279
-0.00123834
0.00738768
0.00281437
0.00732812
0.0066478
0.00726102
0.00988464
0.0071965
0.0122932
0.00714705
0.013614
0.00712522
0.0137426
0.0071344
0.0126833
0.00716354
0.0109751
0.00719517
0.00920276
0.00722
0.0079106
0.00723804
0.00693057
0.00725306
0.00627902
0.00726662
0.00562729
0.00727984
0.00517358
0.00729189
0.00458531
0.00730359
0.00426426
0.00731366
0.00369699
0.00732342
0.00347735
0.00733114
0.00289684
0.00733882
0.00278616
0.00734401
0.00214034
0.00734977
0.00219101
0.00735248
0.00143317
0.0073566
0.00166568
0.00735684
0.000732193
0.00735967
0.0012304
0.0073574
4.93966e-05
0.00735922
0.000892467
0.00735407
-0.000658974
0.00735515
0.000676203
0.0073464
-0.00141542
0.00734587
0.000559694
0.00733058
-0.00212064
0.00732613
0.000930187
0.00730315
-0.00205623
0.00729916
0.00265142
0.00727875
-0.000452163
0.00729255
0.00569621
0.00729868
0.00135748
0.00735202
0.00610448
0.00738762
-0.00187575
0.00745232
-0.00257565
0.00749582
-0.0125419
0.00756818
-0.0340257
0.00761241
-0.0621589
0.00770704
0.0169029
0.00775388
0.0474635
0.00780869
0.029786
0.00782349
0.0100224
0.00784666
0.00644913
0.00784743
-0.00393637
0.00783558
-0.00334313
0.00780018
-0.00735067
0.00775747
-0.00315119
0.00771411
-0.00424506
0.00767649
-0.000522021
0.00764872
-0.00148086
0.00762304
0.00109737
0.00760386
0.000321949
0.00758085
0.00212722
0.00756264
0.00138514
0.00754116
0.0023608
0.00752667
0.00141507
0.00751348
0.00160307
0.00751112
0.000474659
0.00751522
0.000146796
0.00753059
-0.00102991
0.00755
-0.00162668
-0.00269145
0.00749435
-0.0249414
0.00745019
-0.020442
0.0074375
-0.01659
0.00744204
-0.0137452
0.00745394
-0.0111402
0.00746076
-0.00843738
0.00745325
-0.00507723
0.00742705
-0.00121214
0.00738217
0.00285925
0.00732328
0.00670669
0.0072573
0.00995062
0.00719437
0.0123561
0.00714694
0.0136614
0.00712723
0.0137623
0.007138
0.0126726
0.00716784
0.0109452
0.00719943
0.00917117
0.00722404
0.00788599
0.00724196
0.00691264
0.00725698
0.00626401
0.00727057
0.00561369
0.00728382
0.00516033
0.00729589
0.00457324
0.00730761
0.00425254
0.00731769
0.00368692
0.00732745
0.00346759
0.00733517
0.00288912
0.00734285
0.00277847
0.00734803
0.00213515
0.00735379
0.00218526
0.00735649
0.00143047
0.00736058
0.00166158
0.0073608
0.000731973
0.0073636
0.0012276
0.00736129
5.17057e-05
0.00736306
0.000890697
0.00735786
-0.000653773
0.00735886
0.000675202
0.00735003
-0.00140659
0.00734938
0.000560337
0.00733401
-0.00210527
0.00732952
0.000934681
0.00730665
-0.00203336
0.00730293
0.00265515
0.00728304
-0.000432279
0.00729748
0.00568176
0.00730425
0.00135071
0.00735766
0.00605106
0.00739258
-0.00191067
0.00745616
-0.00263922
0.00749862
-0.0125844
0.0075688
-0.0340959
0.0076102
-0.0622003
0.00770608
0.016807
0.00775596
0.0474136
0.00781149
0.0297305
0.00782511
0.0100088
0.00784598
0.00642825
0.0078435
-0.00393389
0.00782862
-0.00332824
0.00779063
-0.00731269
0.00774656
-0.00310712
0.00770258
-0.00420107
0.00766519
-0.000484632
0.00763781
-0.00145349
0.00761284
0.00112234
0.00759431
0.000340485
0.00757226
0.00214926
0.00755514
0.00140227
0.00753526
0.00238068
0.00752263
0.0014277
0.00751176
0.00161394
0.00751163
0.000474793
0.00751775
0.000140683
0.00753396
-0.00104612
0.00755292
-0.00164564
0.00757118
-0.00270971
0.00758125
-0.0032984
0.00758103
-0.00398116
0.00757035
-0.00425705
0.0075515
-0.00444207
0.00752732
-0.00437805
0.00750005
-0.00414082
0.00747188
-0.00388888
0.00744422
-0.00342986
0.00741853
-0.003217
0.00739551
-0.00274029
0.00737575
-0.00273574
0.00735924
-0.00228911
0.00734504
-0.00259712
0.00733317
-0.0021363
0.00732063
-0.00274414
0.00730921
-0.00213079
0.00729206
-0.00301876
0.00727669
-0.00209031
0.00724695
-0.00317424
0.00722442
-0.00171285
0.00716925
-0.00272528
0.000492247
0.00749402
-0.0248597
0.0074492
-0.0203972
0.00743557
-0.0165764
0.00743908
-0.0137487
0.00744996
-0.0111511
0.00745589
-0.00844332
0.00744781
-0.00506915
0.00742141
-0.00118574
0.00737677
0.00290389
0.00731855
0.00676491
0.00725371
0.0100155
0.00719238
0.0124174
0.00714696
0.0137068
0.00712933
0.0137799
0.00714165
0.0126602
0.00717212
0.0109148
0.00720366
0.00913963
0.00722805
0.0078616
0.00724586
0.00689483
0.00726088
0.00624899
0.00727452
0.00560005
0.0072878
0.00514705
0.0072999
0.00456114
0.00731163
0.0042408
0.00732172
0.00367683
0.00733148
0.00345782
0.0073392
0.0028814
0.00734689
0.00277079
0.00735207
0.00212997
0.00735782
0.00217951
0.00736051
0.00142778
0.00736459
0.00165751
0.00736479
0.000731773
0.00736755
0.00122484
0.00736521
5.40504e-05
0.00736693
0.000888976
0.00736168
-0.000648521
0.00736261
0.00067427
0.00735369
-0.00139767
0.00735295
0.000561085
0.00733749
-0.00208981
0.00733296
0.000939211
0.00731021
-0.00201061
0.00730675
0.0026586
0.00728738
-0.000412908
0.00730244
0.0056667
0.00730981
0.00134334
0.00736327
0.00599761
0.0073975
-0.0019449
0.00745998
-0.0027017
0.00750143
-0.0126258
0.00756943
-0.0341639
0.00760797
-0.0622389
0.00770501
0.01671
0.00775784
0.0473607
0.00781405
0.0296743
0.00782649
0.0099964
0.0078451
0.00640963
0.00783946
-0.00392825
0.00782163
-0.00331042
0.00778117
-0.00727223
0.00773585
-0.0030618
0.00769135
-0.00415658
0.00765429
-0.000447569
0.00762738
-0.00142658
0.0076032
0.00114652
0.00758535
0.000358329
0.00756436
0.00217025
0.00754839
0.00141825
0.00753022
0.00239885
0.00751948
0.00143844
0.00751097
0.00162244
0.00751296
0.00047281
0.00752087
0.000132773
0.00753758
-0.00106283
0.00755578
-0.00166384
0.00757182
-0.00272576
0.00757924
-0.00330581
0.0075765
-0.00397842
0.00756405
-0.00424459
0.00754417
-0.00442219
0.00751961
-0.00435349
0.00749245
-0.00411367
0.00746478
-0.0038612
0.00743793
-0.00340301
0.00741322
-0.00319229
0.00739136
-0.00271842
0.00737269
-0.00271707
0.00735724
-0.00227367
0.00734382
-0.0025837
0.00733258
-0.00212506
0.00732026
-0.00273182
0.00730902
-0.00211954
0.0072917
-0.00300144
0.00727624
-0.00207485
0.0072462
-0.00314421
0.00722347
-0.00169012
0.00716835
-0.00267015
0.000532171
0.00749369
-0.0247776
0.00744823
-0.0203517
0.00743367
-0.0165618
0.00743616
-0.0137512
0.00744603
-0.011161
0.00745111
-0.00844839
0.00744245
-0.0050605
0.00741587
-0.00115916
0.00737147
0.00294829
0.00731394
0.00682244
0.00725024
0.0100792
0.00719052
0.0124771
0.0071471
0.0137502
0.00713152
0.0137955
0.00714533
0.0126464
0.00717638
0.0108837
0.00720785
0.00910816
0.00723203
0.00783742
0.00724975
0.00687711
0.00726478
0.00623396
0.00727846
0.00558638
0.00729178
0.00513372
0.0073039
0.00454903
0.00731565
0.00422905
0.00732575
0.00366673
0.00733552
0.00344805
0.00734325
0.00287367
0.00735094
0.0027631
0.00735612
0.00212478
0.00736187
0.00217377
0.00736455
0.00142509
0.00736861
0.00165345
0.00736879
0.000731592
0.00737153
0.00122211
0.00736915
5.64283e-05
0.00737083
0.000887301
0.00736553
-0.000643221
0.00736639
0.000673404
0.0073574
-0.00138868
0.00735655
0.000561934
0.00734102
-0.00207427
0.00733646
0.000943771
0.00731383
-0.00198798
0.00731064
0.0026618
0.00729177
-0.000394042
0.00730743
0.00565105
0.00731536
0.0013354
0.00736883
0.00594414
0.00740237
-0.00197844
0.00746378
-0.0027631
0.00750424
-0.0126663
0.00757007
-0.0342297
0.00760571
-0.0622745
0.00770382
0.0166119
0.00775953
0.047305
0.00781637
0.0296175
0.00782764
0.00998513
0.00784404
0.00639323
0.00783531
-0.00391952
0.00781465
-0.00328975
0.00777183
-0.00722941
0.00772538
-0.00301535
0.00768047
-0.00411167
0.00764384
-0.000410937
0.00761746
-0.0014002
0.00759413
0.00116984
0.00757703
0.000375436
0.00755717
0.00219011
0.0075424
0.00143302
0.00752603
0.00241522
0.00751722
0.00144725
0.00751106
0.00162861
0.00751501
0.000468861
0.00752447
0.000123318
0.00754135
-0.00107971
0.00755849
-0.00168099
0.00757224
-0.0027395
0.00757711
-0.00331069
0.00757211
-0.00397343
0.00755815
-0.00423063
0.00753743
-0.00440147
0.00751261
-0.00432868
0.00748565
-0.0040867
0.00745849
-0.00383405
0.00743245
-0.00337696
0.0074087
-0.00316854
0.00738793
-0.00269765
0.00737027
-0.00269941
0.00735579
-0.00225918
0.00734303
-0.00257094
0.00733232
-0.00211435
0.00732018
-0.00271968
0.00730906
-0.00210841
0.00729156
-0.00298395
0.007276
-0.00205929
0.0072457
-0.00311391
0.00722278
-0.0016672
0.00716774
-0.00261511
0.00057137
0.00749337
-0.0246952
0.00744727
-0.0203056
0.00743181
-0.0165463
0.00743329
-0.0137527
0.00744217
-0.0111698
0.00744639
-0.00845261
0.00743719
-0.00505129
0.00741043
-0.00113241
0.00736629
0.00299243
0.00730945
0.00687927
0.0072469
0.0101417
0.0071888
0.0125352
0.00714737
0.0137917
0.00713379
0.0138091
0.00714904
0.0126312
0.00718062
0.0108521
0.007212
0.00907677
0.00723598
0.00781344
0.00725362
0.00685947
0.00726867
0.00621891
0.00728239
0.00557265
0.00729575
0.00512036
0.0073079
0.00453688
0.00731967
0.00421728
0.00732979
0.00365662
0.00733957
0.00343827
0.0073473
0.00286594
0.00735499
0.00275542
0.00736018
0.00211959
0.00736592
0.00216803
0.0073686
0.00142241
0.00737265
0.0016494
0.00737282
0.000731428
0.00737552
0.0012194
0.00737312
5.88362e-05
0.00737475
0.000885669
0.0073694
-0.000637877
0.00737021
0.000672601
0.00736114
-0.00137962
0.0073602
0.000562878
0.0073446
-0.00205867
0.00734001
0.000948355
0.00731751
-0.00196548
0.00731458
0.00266473
0.00729621
-0.00037567
0.00731244
0.00563481
0.00732091
0.00132693
0.00737435
0.00589069
0.0074072
-0.00201129
0.00746756
-0.00282346
0.00750707
-0.0127058
0.00757072
-0.0342934
0.00760344
-0.0623072
0.00770253
0.0165128
0.00776103
0.0472465
0.00781847
0.02956
0.00782858
0.00997502
0.00784281
0.006379
0.00783108
-0.00390779
0.00780768
-0.00326635
0.00776262
-0.00718435
0.00771515
-0.00296788
0.00766994
-0.00406646
0.00763385
-0.000374843
0.00760806
-0.00137441
0.00758567
0.00119223
0.00756934
0.000391767
0.00755071
0.00220874
0.0075372
0.00144653
0.00752271
0.00242971
0.00751583
0.00145413
0.00751197
0.00163247
0.0075177
0.000463131
0.00752843
0.000112592
0.00754514
-0.00109642
0.00756102
-0.00169686
0.00757243
-0.00275091
0.00757493
-0.00331319
0.00756792
-0.00396641
0.00755265
-0.00421536
0.00753125
-0.00438007
0.00750627
-0.0043037
0.00747955
-0.00405998
0.00745293
-0.00380743
0.00742769
-0.00335172
0.00740487
-0.00314572
0.00738512
-0.0026779
0.0073684
-0.00268269
0.00735478
-0.00224557
0.00734261
-0.00255877
0.00733236
-0.0021041
0.00732035
-0.00270767
0.0073093
-0.00209736
0.00729163
-0.00296627
0.00727596
-0.00204362
0.00724541
-0.00308336
0.00722232
-0.00164411
0.0071674
-0.0025602
0.000609861
0.00749306
-0.0246125
0.00744633
-0.0202589
0.00742998
-0.01653
0.00743046
-0.0137532
0.00743836
-0.0111777
0.00744174
-0.008456
0.007432
-0.00504155
0.00740508
-0.00110549
0.0073612
0.00303631
0.00730507
0.0069354
0.00724367
0.0102031
0.00718719
0.0125917
0.00714774
0.0138311
0.00713614
0.0138207
0.00715276
0.0126146
0.00718483
0.0108201
0.00721612
0.00904548
0.00723991
0.00778966
0.00725747
0.0068419
0.00727254
0.00620384
0.00728632
0.00555888
0.00729972
0.00510695
0.0073119
0.0045247
0.0073237
0.00420549
0.00733383
0.00364649
0.00734362
0.00342847
0.00735136
0.00285819
0.00735906
0.00274772
0.00736425
0.0021144
0.00736999
0.00216228
0.00737267
0.00141974
0.0073767
0.00164536
0.00737686
0.000731275
0.00737954
0.00121672
0.0073771
6.12716e-05
0.0073787
0.000884077
0.00737331
-0.000632491
0.00737405
0.000671858
0.00736492
-0.00137049
0.00736389
0.000563913
0.00734822
-0.002043
0.00734362
0.000952957
0.00732125
-0.00194311
0.00731857
0.0026674
0.00730068
-0.000357781
0.00731747
0.00561803
0.00732644
0.00131795
0.00737983
0.0058373
0.00741199
-0.00204345
0.00747132
-0.00288279
0.0075099
-0.0127444
0.00757138
-0.0343548
0.00760114
-0.062337
0.00770113
0.0164128
0.00776234
0.0471853
0.00782034
0.029502
0.00782931
0.00996605
0.00784143
0.00636688
0.0078268
-0.00389315
0.00780076
-0.00324032
0.00775355
-0.00713714
0.0077052
-0.00291953
0.00765979
-0.00402105
0.00762435
-0.000339395
0.00759921
-0.00134927
0.00757784
0.0012136
0.00756232
0.000407285
0.00754499
0.00222608
0.00753279
0.00145873
0.00752024
0.00244226
0.00751526
0.00145911
0.00751362
0.00163412
0.00752091
0.000455838
0.00753262
0.000100886
0.00754887
-0.00111267
0.00756331
-0.0017113
0.00757243
-0.00276003
0.00757274
-0.0033135
0.00756394
-0.00395761
0.00754756
-0.00419898
0.00752561
-0.00435812
0.00750056
-0.00427865
0.00747412
-0.00403354
0.00744805
-0.00378137
0.0074236
-0.00332726
0.00740166
-0.00312379
0.00738288
-0.00265912
0.00736702
-0.00266682
0.00735418
-0.00223273
0.00734252
-0.00254711
0.00733265
-0.00209424
0.00732072
-0.00269574
0.00730972
-0.00208636
0.00729186
-0.00294842
0.00727609
-0.00202784
0.00724532
-0.00305259
0.00722206
-0.00162085
0.0071673
-0.00250544
0.000647659
0.00749276
-0.0245295
0.00744541
-0.0202116
0.00742818
-0.0165127
0.00742768
-0.0137527
0.00743461
-0.0111847
0.00743717
-0.00845856
0.0074269
-0.00503128
0.00739982
-0.00107841
0.00735622
0.00307991
0.0073008
0.00699082
0.00724057
0.0102634
0.0071857
0.0126466
0.00714823
0.0138686
0.00713855
0.0138304
0.0071565
0.0125966
0.00718903
0.0107875
0.00722021
0.0090143
0.00724381
0.00776606
0.00726131
0.0068244
0.00727641
0.00618874
0.00729024
0.00554505
0.00730369
0.0050935
0.0073159
0.00451249
0.00732772
0.00419367
0.00733786
0.00363634
0.00734767
0.00341866
0.00735543
0.00285044
0.00736313
0.00274001
0.00736833
0.0021092
0.00737407
0.00215654
0.00737675
0.00141706
0.00738077
0.00164133
0.00738091
0.000731137
0.00738357
0.00121406
0.00738111
6.3732e-05
0.00738267
0.000882524
0.00737724
-0.000627067
0.00737793
0.000671171
0.00736874
-0.0013613
0.00736762
0.000565032
0.00735189
-0.00202728
0.00734728
0.000957571
0.00732504
-0.00192087
0.00732262
0.00266982
0.00730521
-0.000340365
0.00732252
0.00560071
0.00733196
0.00130851
0.00738527
0.00578399
0.00741675
-0.00207492
0.00747507
-0.00294112
0.00751274
-0.0127821
0.00757204
-0.0344141
0.00759881
-0.0623638
0.00769963
0.016312
0.00776347
0.0471215
0.00782201
0.0294435
0.00782986
0.0099582
0.00783992
0.00635683
0.00782246
-0.00387569
0.00779389
-0.00321175
0.00774467
-0.00708792
0.00769555
-0.00287041
0.00765006
-0.00397556
0.00761536
-0.000304701
0.00759094
-0.00132485
0.00757065
0.00123388
0.00755598
0.000421958
0.00754002
0.00224204
0.00752915
0.00146959
0.00751859
0.00245282
0.00751546
0.00146224
0.00751591
0.00163367
0.00752453
0.000447224
0.00753693
8.84888e-05
0.00755247
-0.00112821
0.00756536
-0.00172419
0.00757227
-0.00276694
0.00757058
-0.00331181
0.00756021
-0.00394724
0.00754289
-0.00418167
0.0075205
-0.00433574
0.00749543
-0.00425358
0.00746931
-0.00400742
0.0074438
-0.00375586
0.0074201
-0.00330357
0.00739901
-0.0031027
0.00738114
-0.00264125
0.00736606
-0.00265174
0.00735392
-0.00222059
0.0073427
-0.00253589
0.00733315
-0.00208469
0.00732128
-0.00268387
0.0073103
-0.00207538
0.00729227
-0.00293039
0.00727638
-0.00201195
0.00724541
-0.00302162
0.007222
-0.00159745
0.00716744
-0.00245088
0.000684778
0.00749246
-0.0244462
0.00744451
-0.0201636
0.0074264
-0.0164946
0.00742494
-0.0137512
0.00743091
-0.0111906
0.00743266
-0.0084603
0.00742187
-0.00502049
0.00739465
-0.0010512
0.00735134
0.00312323
0.00729664
0.00704552
0.00723757
0.0103224
0.00718433
0.0126998
0.00714881
0.0139041
0.00714103
0.0138381
0.00716025
0.0125774
0.00719319
0.0107546
0.00722426
0.00898323
0.00724768
0.00774264
0.00726514
0.00680694
0.00728027
0.0061736
0.00729416
0.00553117
0.00730765
0.00508
0.0073199
0.00450024
0.00733174
0.00418183
0.00734191
0.00362618
0.00735173
0.00340884
0.0073595
0.00284267
0.00736721
0.0027323
0.00737242
0.002104
0.00737816
0.0021508
0.00738084
0.00141439
0.00738486
0.00163731
0.00738498
0.00073101
0.00738762
0.00121142
0.00738514
6.62148e-05
0.00738666
0.000881006
0.0073812
-0.00062161
0.00738183
0.000670537
0.00737258
-0.00135205
0.00737138
0.000566233
0.00735561
-0.0020115
0.00735099
0.000962192
0.00732888
-0.00189876
0.00732672
0.00267198
0.00730977
-0.00032341
0.00732759
0.00558289
0.00733747
0.00129863
0.00739068
0.00573079
0.00742146
-0.00210571
0.00747881
-0.00299846
0.00751559
-0.0128188
0.00757271
-0.0344713
0.00759646
-0.0623875
0.00769802
0.0162104
0.00776442
0.0470551
0.00782347
0.0293844
0.00783023
0.00995144
0.00783828
0.00634878
0.00781809
-0.0038555
0.00778709
-0.00318075
0.00773597
-0.00703679
0.00768622
-0.00282066
0.00764075
-0.00393008
0.00760691
-0.000270868
0.00758325
-0.00130119
0.00756411
0.00125302
0.00755031
0.000435758
0.00753579
0.00225656
0.00752628
0.0014791
0.00751772
0.00246139
0.00751636
0.00146359
0.00751875
0.00163128
0.00752844
0.000437537
0.00754125
7.56764e-05
0.00755588
-0.00114284
0.00756717
-0.00173547
0.00757199
-0.00277176
0.00756849
-0.00330831
0.00755674
-0.00393549
0.00753862
-0.00416355
0.00751589
-0.00431301
0.00749086
-0.00422854
0.00746507
-0.00398163
0.00744011
-0.00373091
0.00741716
-0.00328061
0.00739687
-0.00308242
0.00737983
-0.00262421
0.00736548
-0.00263739
0.00735396
-0.00220907
0.00734313
-0.00252506
0.00733385
-0.00207541
0.007322
-0.00267203
0.00731102
-0.0020644
0.00729281
-0.00291218
0.00727681
-0.00199595
0.00724568
-0.00299048
0.00722214
-0.00157391
0.0071678
-0.00239654
0.00072123
0.00749217
-0.0243626
0.00744363
-0.0201151
0.00742466
-0.0164757
0.00742224
-0.0137488
0.00742727
-0.0111957
0.00742822
-0.00846125
0.00741692
-0.00500919
0.00738958
-0.00102385
0.00734656
0.00316625
0.00729258
0.0070995
0.00723469
0.0103803
0.00718307
0.0127514
0.00714949
0.0139377
0.00714356
0.0138441
0.00716401
0.0125569
0.00719733
0.0107213
0.00722828
0.00895228
0.00725153
0.00771938
0.00726895
0.00678953
0.00728413
0.00615842
0.00729806
0.00551724
0.00731161
0.00506646
0.00732389
0.00448796
0.00733576
0.00416996
0.00734595
0.00361599
0.00735579
0.003399
0.00736357
0.00283489
0.0073713
0.00272457
0.00737651
0.00209878
0.00738226
0.00214505
0.00738494
0.00141171
0.00738895
0.0016333
0.00738907
0.00073089
0.00739169
0.0012088
0.00738919
6.87175e-05
0.00739067
0.00087952
0.00738518
-0.000616119
0.00738577
0.000669953
0.00737646
-0.00134274
0.00737519
0.00056751
0.00735937
-0.00199569
0.00735474
0.000966815
0.00733278
-0.0018768
0.00733087
0.0026739
0.00731436
-0.000306906
0.00733267
0.00556458
0.00734297
0.00128834
0.00739604
0.00567772
0.00742615
-0.00213582
0.00748254
-0.00305486
0.00751845
-0.0128547
0.00757339
-0.0345262
0.00759409
-0.0624082
0.0076963
0.0161082
0.00776521
0.0469862
0.00782474
0.0293249
0.00783044
0.00994574
0.00783654
0.00634267
0.00781371
-0.00383267
0.00778039
-0.00314743
0.00772748
-0.00698388
0.00767723
-0.00277041
0.00763188
-0.00388474
0.00759902
-0.000237999
0.00757616
-0.00127833
0.00755824
0.00127094
0.00754533
0.000448665
0.0075323
0.00226959
0.00752415
0.00148725
0.00751757
0.00246797
0.00751788
0.00146329
0.00752203
0.00162712
0.00753254
0.000427029
0.00754552
6.27003e-05
0.00755908
-0.0011564
0.00756875
-0.00174515
0.00757162
-0.00277463
0.0075665
-0.00330318
0.00755354
-0.00392254
0.00753476
-0.00414476
0.00751176
-0.00429001
0.0074868
-0.00420358
0.00746136
-0.00395618
0.00743695
-0.0037065
0.0074147
-0.00325836
0.00739518
-0.00306289
0.00737892
-0.00260795
0.00736522
-0.00262369
0.00735426
-0.00219811
0.00734376
-0.00251456
0.00733471
-0.00206636
0.00732287
-0.00266019
0.00731187
-0.00205339
0.0072935
-0.00289382
0.00727739
-0.00197984
0.0072461
-0.00295919
0.00722245
-0.00155026
0.00716837
-0.00234246
0.000757027
0.00749188
-0.0242788
0.00744276
-0.0200659
0.00742295
-0.0164559
0.00741959
-0.0137454
0.00742368
-0.0111998
0.00742384
-0.00846141
0.00741206
-0.00499741
0.00738459
-0.000996379
0.00734187
0.00320896
0.00728863
0.00715274
0.00723192
0.010437
0.00718191
0.0128014
0.00715025
0.0139694
0.00714615
0.0138482
0.00716777
0.0125353
0.00720143
0.0106876
0.00723226
0.00892145
0.00725536
0.00769627
0.00727275
0.00677215
0.00728797
0.0061432
0.00730197
0.00550324
0.00731557
0.00505286
0.00732788
0.00447565
0.00733978
0.00415806
0.00734999
0.00360578
0.00735985
0.00338914
0.00736765
0.00282708
0.00737539
0.00271684
0.00738061
0.00209356
0.00738637
0.0021393
0.00738905
0.00140903
0.00739306
0.00162929
0.00739317
0.000730776
0.00739577
0.00120619
0.00739325
7.12377e-05
0.00739471
0.000878065
0.00738919
-0.000610601
0.00738973
0.000669417
0.00738037
-0.00133339
0.00737902
0.000568858
0.00736317
-0.00197983
0.00735855
0.000971435
0.00733672
-0.00185498
0.00733506
0.00267556
0.00731899
-0.000290843
0.00733777
0.0055458
0.00734845
0.00127766
0.00740136
0.0056248
0.0074308
-0.00216526
0.00748626
-0.00311032
0.00752132
-0.0128898
0.00757407
-0.034579
0.0075917
-0.0624258
0.00769449
0.0160054
0.00776582
0.0469148
0.00782582
0.0292649
0.00783049
0.00994107
0.0078347
0.00633846
0.00780932
-0.00380729
0.00777379
-0.00311189
0.00771922
-0.00692931
0.0076686
-0.00271979
0.00762349
-0.00383964
0.00759169
-0.000206192
0.00756968
-0.00125633
0.00755302
0.00128761
0.00754101
0.000460669
0.0075295
0.0022811
0.0075227
0.00149405
0.00751807
0.0024726
0.00751991
0.00146144
0.00752564
0.0016214
0.00753673
0.000415939
0.00754965
4.97795e-05
0.00756205
-0.0011688
0.00757014
-0.00175324
0.0075712
-0.0027757
0.00756463
-0.0032966
0.00755063
-0.00390854
0.00753127
-0.00412541
0.00750808
-0.00426682
0.00748323
-0.00417873
0.00745814
-0.0039311
0.00743427
-0.00368264
0.0074127
-0.00323679
0.0073939
-0.00304409
0.00737836
-0.00259241
0.00736526
-0.00261059
0.00735479
-0.00218765
0.00734458
-0.00250434
0.00733571
-0.00205749
0.00732386
-0.00264834
0.00731283
-0.00204237
0.0072943
-0.00287529
0.0072781
-0.00196364
0.00724669
-0.00292778
0.00722293
-0.0015265
0.00716913
-0.00228866
0.00079218
0.00749161
-0.0241946
0.0074419
-0.0200162
0.00742126
-0.0164352
0.00741697
-0.0137411
0.00742015
-0.0112029
0.00741953
-0.00846079
0.00740726
-0.00498514
0.00737968
-0.000968799
0.00733727
0.00325137
0.00728478
0.00720524
0.00722925
0.0104926
0.00718086
0.0128498
0.00715111
0.0139991
0.00714878
0.0138505
0.00717153
0.0125126
0.00720551
0.0106536
0.00723621
0.00889075
0.00725917
0.00767331
0.00727653
0.00675478
0.00729181
0.00612792
0.00730587
0.00548918
0.00731951
0.00503921
0.00733187
0.00446329
0.0073438
0.00414613
0.00735403
0.00359555
0.00736391
0.00337926
0.00737173
0.00281927
0.00737948
0.00270909
0.00738472
0.00208832
0.00739048
0.00213354
0.00739316
0.00140635
0.00739717
0.00162528
0.00739728
0.000730667
0.00739987
0.00120361
0.00739733
7.37729e-05
0.00739876
0.000876637
0.00739322
-0.000605057
0.00739371
0.000668924
0.00738431
-0.00132398
0.00738289
0.000570272
0.00736701
-0.00196394
0.00736239
0.000976047
0.00734072
-0.0018333
0.00733929
0.00267699
0.00732366
-0.000275208
0.00734288
0.00552657
0.00735391
0.00126664
0.00740665
0.00557206
0.00743543
-0.00219404
0.00748998
-0.00316487
0.00752419
-0.012924
0.00757476
-0.0346295
0.00758928
-0.0624404
0.00769257
0.0159021
0.00776627
0.0468412
0.00782672
0.0292044
0.00783039
0.0099374
0.00783278
0.00633607
0.00780495
-0.00377945
0.00776731
-0.00307426
0.0077112
-0.0068732
0.00766034
-0.00266893
0.00761558
-0.00379488
0.00758493
-0.00017554
0.00756381
-0.00123521
0.00754844
0.00130298
0.00753735
0.000471763
0.00752738
0.00229107
0.0075219
0.00149953
0.00751915
0.00247535
0.00752239
0.0014582
0.00752947
0.00161432
0.00754093
0.000404485
0.00755361
3.70974e-05
0.00756478
-0.00117997
0.00757135
-0.00175981
0.00757076
-0.00277511
0.0075629
-0.00328873
0.00754799
-0.00389364
0.00752815
-0.00410557
0.00750481
-0.00424348
0.0074801
-0.00415402
0.00745538
-0.00390637
0.00743203
-0.00365929
0.00741111
-0.00321587
0.00739298
-0.00302595
0.00737811
-0.00257754
0.00736555
-0.00259803
0.00735553
-0.00217762
0.00734555
-0.00249437
0.00733684
-0.00204877
0.00732496
-0.00263646
0.0073139
-0.0020313
0.00729523
-0.00285662
0.00727893
-0.00194734
0.00724741
-0.00289626
0.00722357
-0.00150266
0.00717008
-0.00223517
0.000826698
0.00749133
-0.0241102
0.00744107
-0.019966
0.0074196
-0.0164138
0.00741439
-0.0137359
0.00741666
-0.0112052
0.00741528
-0.00845941
0.00740254
-0.0049724
0.00737486
-0.000941119
0.00733278
0.00329346
0.00728102
0.00725699
0.00722668
0.0105469
0.00717991
0.0128966
0.00715204
0.014027
0.00715146
0.0138511
0.00717528
0.0124888
0.00720956
0.0106193
0.00724013
0.00886018
0.00726296
0.00765048
0.00728031
0.00673744
0.00729564
0.00611259