/*--------------------------------*- C++ -*----------------------------------*\
| =========                 |                                                 |
| \\      /  F ield         | OpenFOAM: The Open Source CFD Toolbox           |
|  \\    /   O peration     | Version:  2412                                  |
|   \\  /    A nd           | Website:  www.openfoam.com                      |
|    \\/     M anipulation  |                                                 |
\*---------------------------------------------------------------------------*/
FoamFile
{
    version     2.0;
    format      ascii;
    arch        "LSB;label=32;scalar=64";
    class       volVectorField;
    location    "0.7";
    object      U;
}
// * * * * * * * * * * * * * * * * * * * * * * * * * * * * * * * * * * * * * //

dimensions      [0 1 -1 0 0 0 0];

internalField   nonuniform List<vector> 
13079
(
(100.033 1.88162 0)
(100.675 5.17232 -8.20756e-17)
(101.839 8.11396 -1.12251e-20)
(103.431 10.4341 0)
(105.199 12.5969 0)
(107.102 14.8233 0)
(108.847 17.4261 0)
(110.416 20.3201 0)
(111.689 23.3028 -7.65106e-17)
(112.743 26.1076 8.21091e-17)
(113.629 28.5078 0)
(114.481 30.3732 0)
(115.486 31.5803 0)
(116.862 32.0995 9.97242e-17)
(118.875 31.965 0)
(121.482 31.4993 0)
(124.484 31.0389 -8.26287e-17)
(127.499 30.873 -7.51063e-17)
(130.558 30.9296 -3.25967e-21)
(133.582 31.2086 -6.48667e-17)
(136.804 31.5321 0)
(140.054 32.0081 -5.8961e-17)
(143.59 32.4591 5.66827e-17)
(147.122 33.0835 0)
(151.022 33.6319 0)
(154.862 34.4037 0)
(159.187 35.0362 4.83207e-17)
(163.367 35.9723 -4.61963e-17)
(168.205 36.683 -3.13309e-21)
(172.77 37.8139 0)
(178.242 38.6003 0)
(183.244 39.9721 0)
(189.514 40.8291 0)
(195.015 42.5022 0)
(202.302 43.4219 3.38998e-17)
(208.363 45.4751 -3.15406e-17)
(216.962 46.4472 -3.0566e-17)
(223.644 48.9777 -2.7927e-17)
(233.958 49.995 2.72096e-17)
(241.314 53.1304 -2.40742e-17)
(253.853 54.2595 0)
(261.84 58.2868 -1.98545e-17)
(277.274 59.872 -2.00491e-17)
(285.974 65.2439 -3.11235e-17)
(305.633 67.7254 3.39984e-17)
(315.813 74.4581 0)
(342.244 77.724 -1.48353e-17)
(356.015 84.409 0)
(393.043 87.6675 0)
(412.119 91.9304 0)
(461.585 96.7761 -6.47779e-18)
(489.169 89.0488 0)
(556.998 93.8985 0)
(608.374 2.24056 0)
(562.886 -45.9033 4.67417e-18)
(546.124 -58.6538 0)
(507.882 -65.8616 7.94058e-21)
(491.957 -65.8919 -1.57132e-17)
(461.754 -68.4071 4.78895e-21)
(446.763 -65.9069 -5.18525e-18)
(420.564 -64.8253 -1.90798e-17)
(405.242 -59.9357 0)
(382.746 -57.449 0)
(368.877 -53.0332 -2.04617e-20)
(350.77 -51.0615 5.8255e-17)
(338.878 -47.6773 6.17883e-17)
(324.187 -46.0792 -8.94372e-17)
(313.613 -43.4013 -9.87294e-17)
(301.218 -42.0988 1.26853e-16)
(291.612 -40.1114 -1.41315e-16)
(281.009 -39.2026 1.69271e-16)
(272.419 -37.8535 1.98221e-20)
(263.5 -37.2954 0)
(256.172 -36.4468 0)
(248.984 -36.1616 2.46338e-16)
(243.036 -35.6871 2.53214e-16)
(237.266 -35.5512 -2.53941e-16)
(100.032 1.8638 0)
(100.666 5.12686 8.21373e-17)
(101.818 8.04371 -1.53211e-16)
(103.394 10.3477 0)
(105.147 12.5011 0)
(107.033 14.7263 0)
(108.766 17.3353 0)
(110.327 20.2394 0)
(111.598 23.2338 -7.64196e-17)
(112.656 26.0486 0)
(113.554 28.4558 0)
(114.426 30.323 0)
(115.458 31.5252 0)
(116.871 32.032 0)
(118.921 31.8815 0)
(121.553 31.4037 0)
(124.562 30.9391 3.23537e-21)
(127.575 30.7742 7.42715e-17)
(130.63 30.8323 -6.84866e-17)
(133.655 31.1108 0)
(136.879 31.4329 -6.1087e-17)
(140.131 31.9067 5.84618e-17)
(143.67 32.3558 0)
(147.204 32.9776 -5.40263e-17)
(151.105 33.5241 0)
(154.947 34.2931 0)
(159.274 34.9236 -3.03826e-21)
(163.456 35.8563 4.59644e-17)
(168.297 36.5649 -4.42425e-17)
(172.864 37.6918 0)
(178.338 38.4759 4.0599e-17)
(183.343 39.8427 0)
(189.615 40.6972 0)
(195.118 42.3641 0)
(202.407 43.2811 -3.26116e-21)
(208.471 45.3266 3.13833e-17)
(217.071 46.2961 0)
(223.756 48.8168 0)
(234.071 49.8317 2.70304e-17)
(241.428 52.9553 -2.38915e-17)
(253.966 54.0828 2.34693e-17)
(261.957 58.0965 1.96719e-17)
(277.391 59.6809 3.34367e-21)
(286.11 65.0363 8.04295e-21)
(305.785 67.5153 -1.68067e-17)
(316.013 74.2269 1.12965e-17)
(342.477 77.4818 0)
(356.317 84.1371 6.44549e-18)
(393.327 87.3694 0)
(412.398 91.5933 -6.8276e-19)
(461.764 96.3869 6.35837e-18)
(489.346 88.6126 8.31505e-18)
(556.905 93.3266 -1.44205e-18)
(608.14 2.21888 0)
(563.022 -45.6552 -2.62245e-20)
(546.381 -58.428 -1.97305e-17)
(508.105 -65.6298 7.84119e-21)
(492.05 -65.6577 0)
(461.655 -68.1489 -1.80729e-17)
(446.467 -65.6206 0)
(420.102 -64.5134 0)
(404.684 -59.6118 -9.4661e-18)
(382.144 -57.1294 0)
(368.283 -52.7246 -3.137e-17)
(350.203 -50.7723 -5.77774e-17)
(338.35 -47.4012 0)
(323.697 -45.8206 9.12391e-21)
(313.167 -43.1517 9.8083e-17)
(300.816 -41.8651 1.25955e-16)
(291.265 -39.8877 -1.40193e-16)
(280.725 -38.9978 -3.35325e-16)
(272.212 -37.6643 1.84704e-16)
(263.379 -37.1299 2.09178e-16)
(256.138 -36.302 -2.24184e-16)
(249.024 -36.0398 -2.74061e-21)
(243.119 -35.5791 -2.4237e-16)
(237.339 -35.4482 2.39878e-16)
(100.031 1.84624 0)
(100.658 5.08192 -8.22233e-17)
(101.798 7.97423 7.66841e-17)
(103.359 10.2621 0)
(105.096 12.4062 0)
(106.966 14.6303 0)
(108.687 17.2452 0)
(110.239 20.1593 0)
(111.509 23.1651 7.63354e-17)
(112.572 25.9897 8.18776e-17)
(113.482 28.4035 0)
(114.373 30.2723 0)
(115.434 31.4693 -9.77575e-17)
(116.882 31.9635 0)
(118.969 31.7971 -9.56556e-17)
(121.624 31.3074 8.90038e-17)
(124.64 30.8391 8.09455e-17)
(127.649 30.6754 0)
(130.703 30.7349 -6.77897e-17)
(133.727 31.0129 0)
(136.954 31.3336 6.05682e-17)
(140.208 31.8051 -1.16016e-16)
(143.749 32.2523 0)
(147.285 32.8717 5.36769e-17)
(151.189 33.4162 -5.17331e-17)
(155.032 34.1823 4.96375e-17)
(159.361 34.8109 -4.7815e-17)
(163.545 35.7403 0)
(168.389 36.4468 0)
(172.958 37.5696 0)
(178.434 38.3514 -4.04345e-17)
(183.442 39.7133 0)
(189.716 40.5653 -3.69608e-17)
(195.222 42.2259 0)
(202.513 43.1404 -3.35889e-17)
(208.579 45.1782 -3.12236e-17)
(217.181 46.1451 3.02381e-17)
(223.868 48.6561 2.75909e-17)
(234.184 49.6685 -2.68669e-17)
(241.544 52.7805 2.37311e-17)
(254.08 53.9064 -2.32984e-17)
(262.076 57.9066 -1.95129e-17)
(277.512 59.4901 3.2625e-21)
(286.25 64.829 3.04721e-17)
(305.939 67.3053 1.66189e-17)
(316.217 73.9953 -1.11546e-17)
(342.712 77.239 0)
(356.619 83.8643 -1.26615e-17)
(393.608 87.0707 1.13894e-17)
(412.674 91.2557 1.35171e-18)
(461.944 95.9982 0)
(489.525 88.1778 -8.20837e-18)
(556.812 92.7568 1.43328e-18)
(607.901 2.1963 1.18598e-18)
(563.145 -45.4073 -2.23564e-18)
(546.619 -58.1999 3.88019e-17)
(508.309 -65.3943 7.75303e-21)
(492.126 -65.4194 -1.51245e-17)
(461.543 -67.8867 8.86467e-18)
(446.165 -65.3314 -5.0229e-18)
(419.64 -64.2001 1.84706e-17)
(404.131 -59.2881 9.33424e-18)
(381.554 -56.8114 -3.38285e-17)
(367.705 -52.4188 0)
(349.654 -50.4865 0)
(337.844 -47.129 6.07293e-17)
(323.23 -45.5661 8.80294e-17)
(312.744 -42.9064 0)
(300.439 -41.6361 -1.2477e-16)
(290.945 -39.6693 2.3063e-20)
(280.473 -38.7988 3.31e-16)
(272.04 -37.4815 0)
(263.293 -36.971 -2.04621e-16)
(256.137 -36.1633 2.1769e-16)
(249.091 -35.9226 -2.29243e-16)
(243.217 -35.4733 0)
(237.414 -35.3444 0)
(100.03 1.82892 0)
(100.649 5.03748 0)
(101.779 7.90547 0)
(103.323 10.1775 0)
(105.046 12.3123 0)
(106.9 14.5351 0)
(108.609 17.156 0)
(110.153 20.0798 0)
(111.421 23.0968 0)
(112.489 25.9309 -8.17679e-17)
(113.411 28.3511 -8.78098e-17)
(114.322 30.2211 0)
(115.412 31.4126 9.74353e-17)
(116.896 31.894 9.82636e-17)
(119.018 31.7118 2.19116e-21)
(121.695 31.2106 -2.82985e-21)
(124.717 30.7388 0)
(127.723 30.5764 7.27685e-17)
(130.775 30.6373 1.343e-16)
(133.799 30.9148 6.3052e-17)
(137.028 31.2341 0)
(140.284 31.7034 1.15179e-16)
(143.828 32.1487 5.54764e-17)
(147.366 32.7655 0)
(151.272 33.3081 5.14491e-17)
(155.117 34.0715 -4.93868e-17)
(159.449 34.698 4.75864e-17)
(163.635 35.6241 0)
(168.481 36.3285 0)
(173.052 37.4474 -4.18134e-17)
(178.531 38.2269 0)
(183.541 39.5838 0)
(189.818 40.4333 3.68187e-17)
(195.327 42.0878 0)
(202.62 42.9997 -3.34413e-17)
(208.689 45.0297 3.10825e-17)
(217.292 45.9941 -3.00915e-17)
(223.983 48.4955 -5.48825e-17)
(234.299 49.5055 -2.6705e-17)
(241.662 52.6058 0)
(254.197 53.7303 2.31296e-17)
(262.198 57.7169 1.93476e-17)
(277.635 59.2997 1.9523e-17)
(286.392 64.6219 -3.01704e-17)
(306.096 67.0952 -3.18397e-21)
(316.422 73.7634 0)
(342.947 76.9956 0)
(356.919 83.5905 6.22139e-18)
(393.887 86.7712 -2.23558e-17)
(412.948 90.9177 -6.69461e-19)
(462.123 95.6098 0)
(489.704 87.7442 0)
(556.72 92.1893 -1.42566e-18)
(607.658 2.17286 -1.17708e-18)
(563.255 -45.1596 0)
(546.841 -57.9697 -1.90879e-17)
(508.495 -65.1552 -1.45472e-18)
(492.185 -65.1772 -4.44139e-21)
(461.419 -67.6208 0)
(445.856 -65.0396 4.93247e-18)
(419.177 -63.8855 -1.81683e-17)
(403.584 -58.9648 -9.17197e-18)
(380.975 -56.4951 2.40877e-21)
(367.141 -52.1157 3.06346e-17)
(349.123 -50.2041 0)
(337.357 -46.8605 -6.00848e-17)
(322.785 -45.3156 0)
(312.345 -42.6655 0)
(300.089 -41.4118 0)
(290.655 -39.4562 2.73588e-16)
(280.252 -38.6056 -1.62738e-16)
(271.9 -37.305 0)
(263.24 -36.8184 -1.99078e-16)
(256.167 -36.0303 2.10045e-16)
(249.181 -35.8094 2.18864e-16)
(243.325 -35.3689 2.17142e-16)
(237.487 -35.2392 -2.09266e-16)
(100.029 1.81184 0)
(100.641 4.99354 0)
(101.759 7.83744 0)
(103.289 10.0937 0)
(104.996 12.2193 0)
(106.834 14.4409 6.74381e-17)
(108.531 17.0674 0)
(110.068 20.0008 0)
(111.335 23.0288 0)
(112.408 25.8721 -8.16546e-17)
(113.343 28.2985 1.75324e-16)
(114.274 30.1694 9.32126e-17)
(115.392 31.3551 -9.71187e-17)
(116.912 31.8235 -9.78147e-17)
(119.068 31.6256 9.44512e-17)
(121.767 31.1132 -8.75943e-17)
(124.793 30.6383 0)
(127.797 30.4773 -3.13338e-21)
(130.846 30.5396 -6.6559e-17)
(133.872 30.8165 -3.01555e-21)
(137.103 31.1344 0)
(140.361 31.6015 -5.72061e-17)
(143.907 32.0449 -2.78712e-21)
(147.447 32.6593 0)
(151.355 33.2 0)
(155.202 33.9605 4.9149e-17)
(159.537 34.5851 -4.73807e-17)
(163.725 35.5079 0)
(168.573 36.2102 0)
(173.147 37.325 4.16608e-17)
(178.629 38.1023 -4.01284e-17)
(183.641 39.4542 -3.80527e-17)
(189.921 40.3013 -3.6679e-17)
(195.432 41.9496 -3.45023e-17)
(202.727 42.859 3.11114e-21)
(208.799 44.8814 3.09387e-17)
(217.405 45.8432 0)
(224.098 48.335 2.72992e-17)
(234.415 49.3427 2.65578e-17)
(241.781 52.4314 0)
(254.315 53.5544 -3.26333e-21)
(262.321 57.5276 -1.92047e-17)
(277.761 59.1095 1.93612e-17)
(286.537 64.415 1.49457e-17)
(306.256 66.8851 -3.07643e-21)
(316.63 73.5312 -1.08649e-17)
(343.184 76.7515 0)
(357.218 83.3159 6.10003e-18)
(394.163 86.4711 1.09771e-17)
(413.218 90.5794 0)
(462.302 95.2218 0)
(489.883 87.3119 0)
(556.629 91.6241 1.41795e-18)
(607.411 2.14862 -1.16126e-18)
(563.353 -44.9122 0)
(547.046 -57.7374 0)
(508.664 -64.9128 0)
(492.229 -64.9312 2.91436e-17)
(461.284 -67.3513 8.54752e-18)
(445.541 -64.7453 0)
(418.716 -63.5698 0)
(403.043 -58.642 1.80593e-17)
(380.408 -56.1806 3.29402e-17)
(366.594 -51.8156 -3.02481e-17)
(348.613 -49.9253 0)
(336.892 -46.596 0)
(322.364 -45.0692 0)
(311.971 -42.4291 0)
(299.767 -41.1924 0)
(290.394 -39.2485 -2.13891e-20)
(280.064 -38.4183 1.5931e-16)
(271.795 -37.1348 0)
(263.221 -36.6719 3.47686e-21)
(256.225 -35.9026 -9.82845e-21)
(249.289 -35.6993 2.72e-22)
(243.439 -35.2651 -2.03221e-16)
(237.555 -35.1319 1.93386e-16)
(232.123 -34.7427 0)
(226.411 -34.3951 1.59923e-16)
(220.852 -33.7982 2.98993e-21)
(215.114 -33.1148 3.68735e-21)
(209.605 -32.3001 2.51283e-16)
(204.094 -31.3723 2.41697e-16)
(198.913 -30.4804 1.1798e-16)
(193.811 -29.4645 1.16095e-16)
(189.115 -28.6656 2.29035e-16)
(184.493 -27.6951 1.12458e-16)
(180.353 -27.1187 -1.09821e-16)
(176.186 -26.2417 1.8187e-21)
(172.59 -25.9362 1.01991e-16)
(168.753 -25.0964 -1.94191e-16)
(165.639 -25.0548 -9.23377e-17)
(161.915 -24.1321 -7.39468e-23)
(159.24 -24.3361 -8.28631e-17)
(155.328 -23.1736 -1.56116e-16)
(153.17 -23.5884 7.4413e-17)
(148.609 -21.9946 6.97278e-17)
(147.298 -22.4788 -6.69285e-17)
(141.213 -19.5248 -6.34978e-17)
(100.029 1.79499 8.74362e-17)
(100.633 4.95008 0)
(101.74 7.77013 7.68896e-17)
(103.254 10.0107 0)
(104.947 12.1272 -6.85684e-17)
(106.77 14.3474 -6.74343e-17)
(108.455 16.9796 0)
(109.985 19.9223 0)
(111.25 22.961 0)
(112.329 25.8133 8.15485e-17)
(113.276 28.2455 -1.7503e-16)
(114.228 30.1171 -9.30051e-17)
(115.375 31.2966 1.57551e-21)
(116.93 31.752 -9.73787e-17)
(119.119 31.5385 0)
(121.838 31.0152 0)
(124.869 30.5376 0)
(127.869 30.3781 -3.07394e-21)
(130.917 30.4418 0)
(133.943 30.7181 -6.20738e-17)
(137.177 31.0345 5.92386e-17)
(140.438 31.4994 5.68494e-17)
(143.986 31.941 -2.73519e-21)
(147.528 32.5529 5.27754e-17)
(151.439 33.0917 0)
(155.288 33.8494 -9.78689e-17)
(159.624 34.472 -4.71852e-17)
(163.815 35.3915 0)
(168.666 36.0917 0)
(173.242 37.2026 -4.15111e-17)
(178.727 37.9776 2.93845e-21)
(183.741 39.3246 3.79251e-17)
(190.024 40.1693 3.65534e-17)
(195.537 41.8114 6.87527e-17)
(202.835 42.7183 3.31787e-17)
(208.91 44.733 -3.08125e-17)
(217.518 45.6923 0)
(224.214 48.1746 -2.71557e-17)
(234.533 49.1799 -2.64119e-17)
(241.902 52.2571 0)
(254.435 53.3787 -2.28268e-17)
(262.446 57.3385 0)
(277.888 58.9195 -1.92137e-17)
(286.684 64.2082 0)
(306.419 66.6749 -3.22413e-17)
(316.839 73.2986 2.14779e-17)
(343.422 76.5069 0)
(357.515 83.0403 -6.00676e-18)
(394.436 86.1704 1.07746e-17)
(413.485 90.2407 0)
(462.481 94.8342 0)
(490.063 86.8809 0)
(556.539 91.0611 1.41176e-18)
(607.16 2.12364 1.15379e-18)
(563.438 -44.665 0)
(547.235 -57.503 0)
(508.816 -64.6671 0)
(492.258 -64.6818 -1.43106e-17)
(461.139 -67.0787 -8.3901e-18)
(445.223 -64.4489 4.78058e-18)
(418.257 -63.2533 0)
(402.509 -58.32 -1.77562e-17)
(379.854 -55.8683 0)
(366.064 -51.5186 0)
(348.122 -49.6502 -5.50515e-17)
(336.45 -46.3356 0)
(321.968 -44.8272 -8.44736e-17)
(311.623 -42.1974 0)
(299.473 -40.978 1.18973e-16)
(290.164 -39.0465 -2.03335e-20)
(279.909 -38.237 -1.55205e-16)
(271.723 -36.9709 0)
(263.233 -36.5311 1.85049e-16)
(256.308 -35.7795 -1.91621e-16)
(249.412 -35.5915 1.28892e-21)
(243.556 -35.161 0)
(237.617 -35.0223 -1.77616e-16)
(232.102 -34.6191 0)
(226.308 -34.2564 1.45339e-16)
(220.689 -33.6476 -1.31753e-16)
(214.915 -32.9573 -1.2203e-16)
(209.392 -32.1406 -2.31046e-16)
(203.883 -31.2142 -1.11585e-16)
(198.716 -30.3267 -1.09261e-16)
(193.635 -29.3169 0)
(188.967 -28.5258 -1.06287e-16)
(184.374 -27.5639 0)
(180.265 -26.9962 1.01925e-16)
(176.126 -26.1274 -9.85746e-17)
(172.554 -25.8286 9.48319e-17)
(168.733 -24.9946 9.04704e-17)
(165.63 -24.9556 8.63324e-17)
(161.91 -24.0362 8.18744e-17)
(159.235 -24.2379 7.81502e-17)
(155.32 -23.0783 7.39549e-17)
(153.156 -23.4841 -7.08684e-17)
(148.594 -21.8973 -6.66992e-17)
(147.27 -22.3593 6.4354e-17)
(141.208 -19.4213 6.12665e-17)
(100.028 1.77837 -8.74913e-17)
(100.625 4.9071 -8.24964e-17)
(101.722 7.70352 -7.69714e-17)
(103.221 9.92862 0)
(104.899 12.0359 6.85943e-17)
(106.707 14.2549 0)
(108.38 16.8925 -6.85058e-17)
(109.903 19.8443 0)
(111.167 22.8934 0)
(112.252 25.7545 0)
(113.212 28.1923 8.73715e-17)
(114.183 30.0642 -9.27979e-17)
(115.36 31.2373 1.56759e-21)
(116.95 31.6794 9.69621e-17)
(119.172 31.4506 0)
(121.91 30.9168 0)
(124.944 30.4367 0)
(127.941 30.2788 -1.41795e-16)
(130.987 30.3438 6.55035e-17)
(134.015 30.6196 0)
(137.251 30.9345 -1.17734e-16)
(140.514 31.3972 -5.65273e-17)
(144.065 31.8369 -5.45441e-17)
(147.609 32.4463 -5.25256e-17)
(151.522 32.9832 0)
(155.373 33.7382 4.87366e-17)
(159.713 34.3588 2.78241e-21)
(163.905 35.2751 0)
(168.759 35.9732 4.3387e-17)
(173.337 37.0801 8.2754e-17)
(178.825 37.8528 3.98664e-17)
(183.842 39.1949 0)
(190.127 40.0372 -3.64295e-17)
(195.644 41.6732 -6.85107e-17)
(202.944 42.5776 0)
(209.021 44.5846 0)
(217.631 45.5415 2.96841e-17)
(224.331 48.0142 5.40561e-17)
(234.651 49.0173 2.62797e-17)
(242.023 52.083 2.31352e-17)
(254.556 53.2033 2.26824e-17)
(262.574 57.1496 -1.892e-17)
(278.019 58.7297 0)
(286.834 64.0014 0)
(306.583 66.4647 1.5972e-17)
(317.05 73.0656 -1.06191e-17)
(343.66 76.2616 0)
(357.811 82.7639 5.89607e-18)
(394.706 85.8691 -1.05979e-17)
(413.75 89.9018 0)
(462.661 94.447 0)
(490.244 86.4512 7.84659e-18)
(556.449 90.5003 -1.40501e-18)
(606.905 2.09798 -1.13951e-18)
(563.511 -44.418 0)
(547.408 -57.2666 1.82284e-17)
(508.952 -64.4182 1.41174e-18)
(492.274 -64.4289 0)
(460.986 -66.8029 0)
(444.901 -64.1505 -9.39935e-18)
(417.8 -62.9361 -1.72806e-17)
(401.984 -57.999 1.28431e-20)
(379.315 -55.5582 0)
(365.552 -51.225 2.9306e-17)
(347.655 -49.379 3.65695e-21)
(336.031 -46.0796 0)
(321.597 -44.5896 8.28409e-17)
(311.303 -41.9705 0)
(299.208 -40.7687 -7.15206e-21)
(289.965 -38.8502 -1.28036e-16)
(279.787 -38.0616 -1.50382e-16)
(271.684 -36.813 1.61626e-16)
(263.274 -36.3956 -1.76644e-16)
(256.413 -35.6603 1.8106e-16)
(249.546 -35.4852 -1.82236e-16)
(243.672 -35.056 -1.74251e-16)
(237.672 -34.9101 1.62275e-16)
(232.075 -34.4929 0)
(226.206 -34.1164 -2.63958e-16)
(220.533 -33.4973 -1.20072e-16)
(214.73 -32.8015 0)
(209.198 -31.9838 -3.63954e-21)
(203.693 -31.0594 1.03206e-16)
(198.541 -30.1765 1.01338e-16)
(193.48 -29.1731 1.00041e-16)
(188.84 -28.3897 -9.88114e-17)
(184.275 -27.4361 9.70518e-17)
(180.195 -26.8768 0)
(176.081 -26.0157 0)
(172.53 -25.7231 -8.84347e-17)
(168.723 -24.8944 8.45864e-17)
(165.628 -24.8576 -8.10221e-17)
(161.91 -23.9411 0)
(159.235 -24.1402 -7.39886e-17)
(155.316 -22.9835 -7.03138e-17)
(153.148 -23.3803 0)
(148.585 -21.8006 0)
(147.249 -22.2407 0)
(141.209 -19.3191 0)
(100.027 1.76196 0)
(100.617 4.86459 1.65143e-16)
(101.704 7.6376 0)
(103.188 9.84733 -7.19421e-17)
(104.852 11.9456 0)
(106.644 14.1631 -6.74113e-17)
(108.307 16.806 6.84773e-17)
(109.822 19.7668 7.14771e-17)
(111.086 22.8261 7.59175e-17)
(112.176 25.6956 0)
(113.149 28.1387 0)
(114.141 30.0106 9.25977e-17)
(115.347 31.1771 9.62228e-17)
(116.971 31.6058 0)
(119.225 31.3617 0)
(121.981 30.8179 0)
(125.018 30.3357 0)
(128.013 30.1794 1.40722e-16)
(131.057 30.2458 -6.50399e-17)
(134.086 30.5208 0)
(137.324 30.8343 1.17049e-16)
(140.59 31.2948 0)
(144.143 31.7327 5.42788e-17)
(147.69 32.3397 -5.229e-17)
(151.606 32.8747 0)
(155.459 33.6269 -4.85493e-17)
(159.801 34.2455 4.68452e-17)
(163.996 35.1585 0)
(168.852 35.8546 -4.32539e-17)
(173.433 36.9575 -4.12521e-17)
(178.923 37.728 0)
(183.943 39.0651 0)
(190.231 39.9051 3.63186e-17)
(195.75 41.5349 3.41434e-17)
(203.054 42.4369 0)
(209.134 44.4362 0)
(217.746 45.3906 -2.95664e-17)
(224.449 47.8539 -5.38084e-17)
(234.771 48.8547 0)
(242.147 51.909 -4.60185e-17)
(254.679 53.028 -2.25517e-17)
(262.703 56.9609 1.87986e-17)
(278.151 58.5401 0)
(286.986 63.7948 0)
(306.751 66.2543 -1.58268e-17)
(317.263 72.8323 -1.04929e-17)
(343.899 76.0157 1.34754e-17)
(358.105 82.4867 -5.81201e-18)
(394.974 85.5672 -1.04153e-17)
(414.013 89.5626 -6.82462e-19)
(462.841 94.0602 -5.71485e-18)
(490.425 86.0228 -7.76737e-18)
(556.36 89.9418 1.40011e-18)
(606.645 2.07168 3.66017e-21)
(563.573 -44.1712 -1.9709e-18)
(547.565 -57.0283 -1.79802e-17)
(509.073 -64.1664 -1.38953e-18)
(492.278 -64.1729 -1.38288e-17)
(460.826 -66.5243 0)
(444.577 -63.8503 9.24801e-18)
(417.349 -62.6186 1.69836e-17)
(401.468 -57.6792 8.57305e-18)
(378.791 -55.2506 -3.14066e-17)
(365.059 -50.935 -2.87971e-17)
(347.21 -49.1118 5.30995e-17)
(335.637 -45.828 0)
(321.253 -44.3566 0)
(311.01 -41.7486 8.88607e-17)
(298.974 -40.5647 -1.1299e-16)
(289.799 -38.6596 0)
(279.698 -37.8921 3.93744e-21)
(271.676 -36.6611 -3.0928e-16)
(263.342 -36.2649 1.6746e-16)
(256.535 -35.5444 -1.69873e-16)
(249.685 -35.3795 0)
(243.784 -34.9495 1.59867e-16)
(237.718 -34.7951 0)
(232.042 -34.3645 0)
(226.105 -33.9754 1.19863e-16)
(220.387 -33.3476 1.09568e-16)
(214.559 -32.6475 0)
(209.021 -31.8294 9.81863e-17)
(203.521 -30.9076 3.44925e-21)
(198.384 -30.0296 0)
(193.345 -29.0326 -9.30979e-17)
(188.73 -28.2569 9.20259e-17)
(184.192 -27.3115 -9.04262e-17)
(180.139 -26.7601 0)
(176.047 -25.9064 0)
(172.515 -25.6194 0)
(168.719 -24.7957 -7.9354e-17)
(165.632 -24.7605 -4.9707e-21)
(161.915 -23.8469 7.29322e-17)
(159.239 -24.0431 7.02831e-17)
(155.316 -22.8893 6.70776e-17)
(153.143 -23.277 0)
(148.579 -21.7043 6.1572e-17)
(147.233 -22.1229 -5.99968e-17)
(141.214 -19.218 0)
(100.026 1.74577 0)
(100.61 4.82254 -1.19628e-20)
(101.686 7.57237 -7.71009e-17)
(103.155 9.76685 7.1999e-17)
(104.805 11.856 -6.86254e-17)
(106.583 14.0722 5.60758e-21)
(108.234 16.7203 -6.84399e-17)
(109.742 19.6898 -7.14267e-17)
(111.006 22.7591 -7.5842e-17)
(112.102 25.6367 0)
(113.088 28.0848 0)
(114.101 29.9564 -9.23972e-17)
(115.335 31.116 0)
(116.994 31.5311 9.61675e-17)
(119.28 31.2721 0)
(122.053 30.7185 0)
(125.092 30.2344 0)
(128.084 30.0799 -1.39726e-16)
(131.127 30.1476 0)
(134.157 30.4219 0)
(137.398 30.7339 -5.82113e-17)
(140.666 31.1923 5.59518e-17)
(144.222 31.6283 -2.59601e-21)
(147.771 32.2328 2.97626e-21)
(151.689 32.766 -5.03184e-17)
(155.545 33.5154 4.83828e-17)
(159.889 34.1321 0)
(164.086 35.0418 0)
(168.946 35.7358 0)
(173.529 36.8348 4.11301e-17)
(179.022 37.6031 0)
(184.045 38.9353 -3.75722e-17)
(190.335 39.7728 0)
(195.857 41.3966 0)
(203.164 42.2961 -3.28296e-17)
(209.247 44.2878 3.04538e-17)
(217.862 45.2398 -2.9449e-17)
(224.568 47.6936 5.35736e-17)
(234.891 48.6922 2.60266e-17)
(242.271 51.7351 2.28899e-17)
(254.804 52.8529 2.24218e-17)
(262.834 56.7724 0)
(278.285 58.3506 1.88049e-17)
(287.141 63.5882 0)
(306.92 66.0438 2.6773e-21)
(317.477 72.5985 7.98345e-21)
(344.138 75.7691 -1.33214e-17)
(358.398 82.2086 0)
(395.24 85.2648 1.02568e-17)
(414.273 89.2232 1.35494e-18)
(463.021 93.6738 5.63802e-18)
(490.607 85.5956 -7.69425e-18)
(556.272 89.3856 -1.39421e-18)
(606.38 2.04482 1.12404e-18)
(563.622 -43.9245 1.95262e-18)
(547.707 -56.7882 0)
(509.179 -63.9117 -1.38233e-18)
(492.27 -63.9139 2.71985e-17)
(460.659 -66.2431 0)
(444.252 -63.5487 -4.5464e-18)
(416.902 -62.3008 0)
(400.964 -57.3609 0)
(378.284 -54.9458 3.08341e-17)
(364.588 -50.6488 0)
(346.79 -48.8489 0)
(335.27 -45.581 0)
(320.936 -44.1282 0)
(310.746 -41.5317 -1.72588e-16)
(298.77 -40.3659 1.09313e-16)
(289.663 -38.4748 0)
(279.641 -37.7283 1.38719e-16)
(271.697 -36.5146 1.46982e-16)
(263.433 -36.1384 0)
(256.671 -35.4308 0)
(249.827 -35.2738 0)
(243.889 -34.8412 -1.45952e-16)
(237.755 -34.6775 -1.33978e-16)
(232.006 -34.2342 0)
(226.007 -33.8338 1.08979e-16)
(220.25 -33.1986 0)
(214.403 -32.4952 -9.44237e-17)
(208.861 -31.6775 0)
(203.367 -30.7586 -8.88082e-17)
(198.246 -29.8857 -8.76801e-17)
(193.227 -28.8952 0)
(188.637 -28.1272 -8.58993e-17)
(184.124 -27.1897 0)
(180.096 -26.6459 -8.26489e-17)
(176.024 -25.7992 -8.02038e-17)
(172.509 -25.5172 0)
(168.722 -24.6981 -7.47067e-17)
(165.641 -24.6642 7.21143e-17)
(161.924 -23.7532 -6.92006e-17)
(159.247 -23.9464 -6.69989e-17)
(155.321 -22.7955 0)
(153.143 -23.174 0)
(148.578 -21.6086 -5.94056e-17)
(147.221 -22.0059 5.81313e-17)
(141.224 -19.1181 5.57961e-17)
(100.026 1.72979 0)
(100.603 4.78093 -1.18828e-20)
(101.668 7.50781 7.71807e-17)
(103.124 9.68716 0)
(104.759 11.7673 6.86518e-17)
(106.522 13.9821 6.74017e-17)
(108.163 16.6352 6.84129e-17)
(109.664 19.6133 0)
(110.927 22.6922 0)
(112.029 25.5778 -8.11259e-17)
(113.029 28.0306 -8.69469e-17)
(114.063 29.9016 9.22031e-17)
(115.326 31.0539 0)
(117.019 31.4554 -1.79136e-21)
(119.335 31.1815 0)
(122.124 30.6186 8.47101e-17)
(125.165 30.133 0)
(128.154 29.9803 1.38802e-16)
(131.197 30.0493 0)
(134.228 30.3228 -6.05368e-17)
(137.472 30.6333 5.792e-17)
(140.743 31.0896 -5.57029e-17)
(144.301 31.5237 -5.38185e-17)
(147.852 32.1259 5.18825e-17)
(151.772 32.6571 5.01461e-17)
(155.63 33.4038 4.82231e-17)
(159.977 34.0186 0)
(164.177 34.925 4.46043e-17)
(169.039 35.617 0)
(173.625 36.712 -4.10235e-17)
(179.121 37.478 -3.95271e-17)
(184.146 38.8054 3.74739e-17)
(190.44 39.6405 0)
(195.965 41.2582 -3.39296e-17)
(203.274 42.1552 3.27297e-17)
(209.36 44.1394 -3.03533e-17)
(217.978 45.089 2.93438e-17)
(224.688 47.5333 -2.66783e-17)
(235.013 48.5298 -2.59145e-17)
(242.396 51.5613 2.27676e-17)
(254.93 52.6779 -2.94499e-21)
(262.967 56.584 0)
(278.422 58.1613 -2.69762e-21)
(287.297 63.3816 0)
(307.091 65.8331 2.58584e-21)
(317.693 72.3643 7.81583e-21)
(344.378 75.5219 0)
(358.689 81.9296 0)
(395.503 84.9619 0)
(414.532 88.8836 -6.72924e-19)
(463.202 93.2878 0)
(490.79 85.1697 7.62412e-18)
(556.184 88.8317 -1.39047e-18)
(606.112 2.01743 0)
(563.66 -43.678 0)
(547.835 -56.5462 0)
(509.272 -63.6542 1.3621e-18)
(492.251 -63.6521 4.02991e-21)
(460.487 -65.9595 0)
(443.928 -63.2456 4.48008e-18)
(416.462 -61.9831 0)
(400.471 -57.0442 8.2363e-18)
(377.795 -54.6439 0)
(364.138 -50.3666 2.7589e-17)
(346.395 -48.5904 0)
(334.928 -45.3388 -5.32833e-17)
(320.648 -43.9046 0)
(310.511 -41.32 8.34128e-17)
(298.597 -40.1723 -4.04492e-21)
(289.559 -38.2957 0)
(279.614 -37.5699 1.31989e-16)
(271.745 -36.3731 -1.38766e-16)
(263.544 -36.0154 0)
(256.816 -35.3189 0)
(249.968 -35.1674 0)
(243.987 -34.7307 2.65491e-16)
(237.786 -34.5574 1.21357e-16)
(231.967 -34.1022 1.091e-16)
(225.914 -33.6919 -9.92518e-17)
(220.123 -33.0506 0)
(214.26 -32.3447 8.70986e-17)
(208.716 -31.528 0)
(203.23 -30.6123 0)
(198.125 -29.7447 8.18271e-17)
(193.125 -28.7607 0)
(188.559 -28.0001 1.60738e-16)
(184.069 -27.0704 0)
(180.065 -26.5338 -4.16001e-21)
(176.01 -25.6937 -2.02595e-21)
(172.509 -25.4164 0)
(168.731 -24.6015 7.05742e-17)
(165.654 -24.5686 0)
(161.937 -23.6601 0)
(159.258 -23.85 6.40654e-17)
(155.328 -22.7021 0)
(153.146 -23.0714 0)
(148.58 -21.5132 0)
(147.214 -21.8897 0)
(141.239 -19.0193 -5.43159e-17)
(100.025 1.71401 -8.7633e-17)
(100.595 4.73977 -8.278e-17)
(101.651 7.44391 0)
(103.092 9.60826 0)
(104.714 11.6795 0)
(106.463 13.8928 0)
(108.092 16.5507 0)
(109.587 19.5371 0)
(110.85 22.6256 7.56844e-17)
(111.958 25.5188 1.62051e-16)
(112.971 27.976 1.7362e-16)
(114.026 29.8461 0)
(115.319 30.9909 0)
(117.046 31.3787 -1.7843e-21)
(119.391 31.0902 0)
(122.194 30.5183 -8.42315e-17)
(125.237 30.0314 0)
(128.224 29.8807 -6.89744e-17)
(131.266 29.9508 0)
(134.299 30.2236 6.02302e-17)
(137.545 30.5326 -2.4916e-21)
(140.819 30.9867 0)
(144.379 31.419 -5.36126e-17)
(147.933 32.0188 5.16988e-17)
(151.856 32.5482 0)
(155.716 33.2921 -4.80819e-17)
(160.066 33.9049 -4.64201e-17)
(164.268 34.8081 -4.44891e-17)
(169.133 35.498 0)
(173.721 36.589 4.0917e-17)
(179.221 37.3529 2.77778e-21)
(184.248 38.6753 -3.7374e-17)
(190.545 39.5081 3.60133e-17)
(196.073 41.1197 6.76719e-17)
(203.385 42.0143 3.26298e-17)
(209.474 43.9909 0)
(218.095 44.9381 0)
(224.808 47.3731 0)
(235.136 48.3674 0)
(242.523 51.3876 -6.03309e-21)
(255.057 52.5031 -2.2191e-17)
(263.102 56.3958 1.84458e-17)
(278.561 57.972 -1.85716e-17)
(287.456 63.1751 0)
(307.265 65.6223 2.49756e-21)
(317.91 72.1296 1.01805e-17)
(344.618 75.274 0)
(358.978 81.6499 0)
(395.764 84.6585 0)
(414.789 88.5438 0)
(463.383 92.9021 5.47495e-18)
(490.973 84.7451 0)
(556.096 88.2801 -1.0125e-21)
(605.839 1.98958 0)
(563.686 -43.4317 0)
(547.949 -56.3025 0)
(509.352 -63.3942 0)
(492.223 -63.3876 3.98812e-21)
(460.31 -65.6735 7.70674e-18)
(443.604 -62.9415 -4.40194e-18)
(416.029 -61.6655 -1.60995e-17)
(399.991 -56.7293 -8.07887e-18)
(377.325 -54.3451 -2.95817e-17)
(363.712 -50.0886 -5.38536e-17)
(346.026 -48.3364 0)
(334.615 -45.1014 1.56839e-20)
(320.388 -43.6857 -7.37257e-17)
(310.305 -41.1134 0)
(298.454 -39.9839 -1.00718e-16)
(289.485 -38.1221 0)
(279.615 -37.4165 -2.49605e-16)
(271.816 -36.236 7.43489e-21)
(263.669 -35.895 1.37024e-16)
(256.966 -35.2079 0)
(250.104 -35.0598 0)
(244.076 -34.618 -1.20426e-16)
(237.809 -34.435 -1.09887e-16)
(231.927 -33.9689 -9.90338e-17)
(225.826 -33.5499 0)
(220.007 -32.9036 -8.44199e-17)
(214.131 -32.196 0)
(208.586 -31.3807 0)
(203.109 -30.4685 -7.71665e-17)
(198.018 -29.6063 0)
(193.038 -28.6289 0)
(188.495 -27.8756 -7.53911e-17)
(184.026 -26.9534 0)
(180.043 -26.4236 7.28739e-17)
(176.005 -25.5898 1.41965e-16)
(172.517 -25.3167 0)
(168.745 -24.5058 6.69021e-17)
(165.672 -24.4735 -6.50939e-17)
(161.953 -23.5674 0)
(159.272 -23.7539 0)
(155.338 -22.6091 0)
(153.153 -22.9692 0)
(148.586 -21.4183 -5.57037e-17)
(147.212 -21.7742 -5.49506e-17)
(141.258 -18.9215 0)
(100.024 1.69844 8.76848e-17)
(100.588 4.69904 8.28341e-17)
(101.634 7.38065 0)
(103.061 9.53013 0)
(104.669 11.5924 -6.86838e-17)
(106.404 13.8043 6.73826e-17)
(108.023 16.4669 -6.83466e-17)
(109.512 19.4615 0)
(110.775 22.5591 -7.56119e-17)
(111.889 25.4597 -8.09258e-17)
(112.915 27.921 -8.66748e-17)
(113.992 29.7899 9.18176e-17)
(115.313 30.9269 0)
(117.073 31.301 -9.50788e-17)
(119.447 30.998 0)
(122.265 30.4175 0)
(125.309 29.9296 -7.56255e-17)
(128.293 29.7809 0)
(131.335 29.8522 0)
(134.37 30.1242 0)
(137.618 30.4317 -1.14827e-16)
(140.894 30.8836 0)
(144.458 31.3142 5.34284e-17)
(148.014 31.9115 -5.15356e-17)
(151.939 32.439 0)
(155.802 33.1802 0)
(160.154 33.7911 4.63028e-17)
(164.359 34.691 0)
(169.227 35.3789 0)
(173.818 36.466 -3.58913e-21)
(179.32 37.2276 7.86782e-17)
(184.351 38.5452 3.93766e-21)
(190.651 39.3757 -3.59272e-17)
(196.181 40.9811 -3.37478e-17)
(203.497 41.8733 -2.86195e-21)
(209.589 43.8424 -3.01543e-17)
(218.212 44.7873 0)
(224.93 47.2128 0)
(235.259 48.2051 0)
(242.651 51.214 -2.25592e-17)
(255.186 52.3283 2.20806e-17)
(263.238 56.2078 -1.83487e-17)
(278.701 57.7829 1.84604e-17)
(287.617 62.9685 0)
(307.44 65.4112 2.41243e-21)
(318.128 71.8945 0)
(344.859 75.0255 0)
(359.265 81.3694 -5.4657e-18)
(396.023 84.3546 -9.80287e-18)
(415.044 88.2039 0)
(463.564 92.5169 -7.29251e-21)
(491.156 84.3217 0)
(556.01 87.7309 1.38155e-18)
(605.561 1.9613 1.09618e-18)
(563.701 -43.1854 0)
(548.049 -56.0571 0)
(509.419 -63.1316 0)
(492.185 -63.1207 -1.29743e-17)
(460.13 -65.3856 -7.57899e-18)
(443.282 -62.6364 -4.33749e-18)
(415.605 -61.3484 1.57987e-17)
(399.525 -56.4166 7.89568e-18)
(376.875 -54.0496 2.89003e-17)
(363.309 -49.8148 1.30093e-20)
(345.684 -48.0869 4.77592e-17)
(334.328 -44.8688 4.98487e-17)
(320.157 -43.4715 7.08427e-17)
(310.128 -40.9119 0)
(298.34 -39.8005 0)
(289.44 -37.9537 0)
(279.642 -37.2677 2.3458e-16)
(271.907 -36.1027 1.21394e-16)
(263.806 -35.7767 -1.26631e-16)
(257.118 -35.0971 0)
(250.235 -34.9507 0)
(244.157 -34.503 0)
(237.827 -34.3106 1.99113e-16)
(231.887 -33.8347 0)
(225.745 -33.408 -8.29898e-17)
(219.901 -32.7576 7.78516e-17)
(214.014 -32.049 0)
(208.471 -31.2355 -7.30472e-17)
(203.001 -30.327 -3.5454e-21)
(197.926 -29.4703 0)
(192.964 -28.4994 7.14483e-17)
(188.442 -27.7533 -7.09232e-17)
(183.994 -26.8385 0)
(180.03 -26.3151 0)
(176.006 -25.4873 -6.71036e-17)