/*--------------------------------*- C++ -*----------------------------------*\
| =========                 |                                                 |
| \\      /  F ield         | OpenFOAM: The Open Source CFD Toolbox           |
|  \\    /   O peration     | Version:  2412                                  |
|   \\  /    A nd           | Website:  www.openfoam.com                      |
|    \\/     M anipulation  |                                                 |
\*---------------------------------------------------------------------------*/
FoamFile
{
    version     2.0;
    format      ascii;
    arch        "LSB;label=32;scalar=64";
    class       volScalarField;
    location    "0.6";
    object      epsilon;
}
// * * * * * * * * * * * * * * * * * * * * * * * * * * * * * * * * * * * * * //

dimensions      [0 2 -3 0 0 0 0];

internalField   nonuniform List<scalar> 
13077
(
416.296
479.731
592.331
773.595
1012.93
1260.6
1461.23
1583.62
1626.29
1606.46
1544.63
1457.01
1351.5
1232.78
1116.12
1029.32
986.79
982.476
1001.69
1033.77
1071.85
1114.39
1159.69
1209.74
1263.55
1324.82
1391.73
1470.09
1556.16
1659.23
1771.91
1909.53
2057.4
2242.36
2436.74
2690.8
2951.79
3313.11
3679.24
417.07
481.518
595.408
777.846
1017.56
1264.49
1463.58
1584.5
1626.33
1606.44
1545.21
1458.72
1354.85
1238.02
1122.52
1035.57
992.162
986.969
1005.55
1037.22
1074.99
1117.26
1162.31
1212.12
1265.71
1326.79
1393.55
1471.84
1557.9
1661.07
1773.95
1911.92
2060.27
2245.97
2441.21
2696.54
2958.93
3322.41
3690.73
4258.46
4887.3
5996.65
7348.1
9748.27
12595.3
17317.7
21986.3
28356.8
31765.4
38165.5
46814.6
70915.9
184636
218586
209273
208450
195700
181921
166966
159466
151741
147635
138300
130418
118540
109323
98267.4
89466.6
79399.5
417.865
483.35
598.561
782.2
1022.31
1268.47
1466.01
1585.47
1626.49
1606.62
1546.1
1460.84
1358.72
1243.89
1129.63
1042.55
998.208
992.071
1009.97
1041.18
1078.6
1120.58
1165.35
1214.89
1268.24
1329.12
1395.72
1473.93
1559.98
1663.26
1776.35
1914.72
2063.6
2250.11
2446.29
2703.03
2966.96
3332.84
3703.6
4275
4906.99
6022.28
7381.13
9800.45
12681.6
17488.4
22303.5
28951.5
32583.8
39114.9
47814.9
72317.2
187975
221657
214377
216058
203719
189842
174592
167575
160707
157814
149409
142203
130424
121084
109538
100180
89329.3
79719.6
69309.4
59778.9
49873.7
40624.2
31861.8
24599
18918.1
14844.2
11956.3
9916.61
8417.55
7264.1
6334.19
5549.09
4882.87
4308.73
3831.01
3431.67
3112.88
2854.55
2656.19
2504.8
2396.45
2334.52
2304.04
2352.53
2438.96
2767.35
3146.21
418.681
485.229
601.796
786.665
1027.18
1272.56
1468.56
1586.56
1626.8
1607.01
1547.31
1463.42
1363.15
1250.4
1137.47
1050.28
1004.98
997.833
1014.99
1045.69
1082.73
1124.38
1168.84
1218.1
1271.18
1331.83
1398.26
1476.38
1562.42
1665.82
1779.14
1917.95
2067.4
2254.8
2452.01
2710.29
2975.92
3344.43
3717.9
4293.41
4928.98
6050.86
7417.78
9857.39
12774.3
17668.6
22636.2
29577.1
33454.6
40134.4
48886.4
73784.7
191387
224856
219816
224240
212368
198349
182696
176099
170070
168410
160993
154525
142913
133489
121486
111577
99946.1
89523.6
78156.9
67706.8
56847.3
46639.9
36806.6
28473.5
21825.5
17007.3
13586.9
11186.2
9440.77
8113.8
7054.15
6162.82
5405.55
4748.98
4199.73
3737.74
3368.35
3067.92
2837.92
2661
2535
2459.22
2420.82
2464.53
2550.8
2885.82
3277.26
419.519
487.159
605.117
791.25
1032.19
1276.79
1471.22
1587.77
1627.28
1607.66
1548.89
1466.48
1368.18
1257.62
1146.1
1058.84
1012.54
1004.31
1020.66
1050.79
1087.41
1128.7
1172.82
1221.76
1274.54
1334.95
1401.19
1479.21
1565.23
1668.76
1782.33
1921.61
2071.69
2260.05
2458.4
2718.34
2985.85
3357.23
3733.71
4313.75
4953.37
6082.5
7458.21
9919.32
12873.5
17858.8
22985.1
30234.3
34379.9
41228.1
50033.7
75322.2
194876
228200
225619
233041
221699
207492
191313
185059
179832
179413
173031
167352
155967
146493
134063
123605
111198
99948.6
87612
76217.3
64394.8
53237.7
42339.8
32899.4
25198.2
19534.9
15494.4
12668.1
10631.4
9100.42
7889.61
6875.59
6013.52
5261.67
4629.13
4093.59
3664.46
3314.14
3046.58
2839.33
2692.33
2600.05
2552.09
2589.72
2675.35
3016.6
3421.29
420.379
489.141
608.53
795.962
1037.34
1281.16
1474.03
1589.14
1627.95
1608.58
1550.86
1470.08
1373.87
1265.61
1155.59
1068.3
1020.95
1011.57
1027.04
1056.56
1092.7
1133.59
1177.33
1225.92
1278.38
1338.52
1404.54
1482.44
1568.45
1672.11
1785.95
1925.74
2076.5
2265.9
2465.48
2727.24
2996.8
3371.3
3751.09
4336.12
4980.29
6117.38
7502.63
9986.55
12979.8
18059.4
23350.6
30924.2
35362.1
42401.1
51262.3
76934.3
198447
231704
231816
242509
231771
217328
200483
194476
190003
190818
185505
180654
169548
160051
147220
136213
123031
110940
97622.1
85259.3
72465.1
60370.6
48435.9
37883.5
29067.4
22465.8
17714.4
14391.8
12013.5
10243.8
8857.52
7702.38
6720.24
5858.75
5129.61
4507.94
4008.37
3598.95
3286.74
3043.44
2871.41
2759.42
2699.94
2729.93
2814.3
3161.29
3579.93
421.263
491.177
612.037
800.807
1042.64
1285.69
1476.99
1590.67
1628.84
1609.81
1553.27
1474.27
1380.28
1274.43
1166.01
1078.72
1030.29
1019.69
1034.2
1063.04
1098.65
1139.1
1182.42
1230.63
1282.73
1342.57
1408.35
1486.13
1572.1
1675.91
1790.03
1930.37
2081.86
2272.38
2473.3
2737.03
3008.82
3386.71
3770.13
4360.63
5009.86
6155.69
7551.3
10059.4
13093.5
18271
23733.5
31647.8
36403.9
43658.5
52577.9
78626.1
202107
235390
238440
252697
242649
227918
210250
204377
200591
202621
198398
194404
183621
174120
160908
149349
135391
122443
108133
94780.1
81003.1
67982
55050.8
43411.6
33450.2
25832.8
20281.6
16387.9
13612.5
11565.2
9976.32
8659.65
7540.69
6553.81
5713.17
4991.02
4408.56
3929.15
3563.88
3277.65
3075.77
2940.22
2866.83
2887.29
2969.63
3321.67
3755.07
422.172
493.269
615.643
805.792
1048.11
1290.4
1480.13
1592.4
1629.98
1611.38
1556.16
1479.09
1387.47
1284.14
1177.43
1090.19
1040.65
1028.75
1042.21
1070.3
1105.34
1145.29
1188.16
1235.93
1287.63
1347.14
1412.66
1490.29
1576.23
1680.19
1794.61
1935.52
2087.8
2279.53
2481.9
2747.76
3021.97
3403.53
3790.91
4387.39
5042.24
6197.61
7604.47
10138.2
13215.1
18494.3
24134.6
32406.3
37508.1
45006.1
53987.1
80403.2
205863
239278
245526
263661
254400
239331
220664
214792
211609
214820
211695
208575
198149
188660
175080
162963
148226
134404
119092
104727
89953.8
76010.5
62126.4
49448.5
38345.5
29658.1
23226.3
18685.6
15454
13086.7
11265.3
9764.9
8491.11
7361.84
6393.4
5554.61
4874.93
4312.79
3884.47
3547.12
3309.57
3145.85
3055.65
3064.28
3143.61
3499.83
3948.86
423.106
495.421
619.353
810.924
1053.75
1295.28
1483.46
1594.35
1631.39
1613.33
1559.58
1484.61
1395.52
1294.84
1189.94
1102.81
1052.12
1038.83
1051.16
1078.43
1112.83
1152.23
1194.59
1241.89
1293.15
1352.29
1417.51
1494.98
1580.86
1684.97
1799.71
1941.24
2094.35
2287.39
2491.32
2759.47
3036.3
3421.84
3813.54
4416.52
5077.58
6243.38
7662.41
10223.3
13345
18729.8
24554.8
33200.9
38677.5
46449.9
55496.7
82271.7
209722
243391
253113
275457
267099
251638
231778
225754
223070
227411
225381
223143
213099
203629
189692
177007
161485
146773
130448
115051
99264.7
84395.7
69596.8
55941.3
43732
33949.7
26571.2
21311.1
17562.5
14830
12744
11036.1
9588.53
8299.02
7185.28
6212.03
5418.91
4759.25
4256.14
3857.92
3577.74
3380.28
3269.79
3263.78
3338.9
3698.16
4163.73
424.067
497.634
623.171
816.212
1059.58
1300.37
1487
1596.53
1633.1
1615.7
1563.57
1490.9
1404.49
1306.59
1203.63
1116.67
1064.8
1050.03
1061.14
1087.5
1121.19
1159.99
1201.78
1248.57
1299.34
1358.07
1422.95
1500.23
1586.05
1690.3
1805.37
1947.56
2101.56
2295.99
2501.6
2772.22
3051.88
3441.7
3838.11
4448.14
5116.04
6293.19
7725.42
10315.3
13483.9
18978.4
24995
34032.8
39915
47996.2
57114.4
84238.3
213692
247753
261242
288147
280820
264920
243651
237300
234989
240396
239442
238082
228437
218991
204702
191436
175122
159501
142154
125705
108888
93081.9
77395.6
62825.2
49569.4
38698.4
30328.1
24284.4
19959.3
16815.3
14431
12490.8
10850.1
9382.11
8104.93
6978.05
6053.44
5279.37
4687.78
4217.14
3886.05
3648.18
3513.18
3489.14
3558.55
3919.4
4402.47
425.056
499.911
627.102
821.664
1065.6
1305.67
1490.77
1598.98
1635.16
1618.52
1568.19
1498
1414.46
1319.5
1218.6
1131.87
1078.8
1062.46
1072.24
1097.61
1130.51
1168.65
1209.81
1256.02
1306.25
1364.52
1429.04
1506.09
1591.82
1696.22
1811.63
1954.51
2109.47
2305.38
2512.78
2786.05
3068.78
3463.2
3864.7
4482.38
5157.79
6347.29
7793.79
10414.3
13632.3
19240.9
25456.2
34903.6
41223.6
49651.8
58848.2
86309.9
217783
252392
269955
301793
295644
279258
256348
249471
247385
253774
253864
253370
244134
234708
220069
206209
189092
172545
154163
136647
118780
102020
85460.8
70030.9
55802.3
43877.4
34495.3
27616.9
22660.4
19059.3
16342.6
14145.3
12292
10627.8
9169.03
7868.56
6792.89
5885.48
5189.63
4633.09
4241.25
3955
3790.42
3744.23
3806.05
4166.67
4668.2
426.073
502.254
631.152
827.287
1071.84
1311.21
1494.79
1601.73
1637.58
1621.85
1573.49
1506
1425.53
1333.65
1234.95
1148.54
1094.23
1076.23
1084.57
1108.85
1140.89
1178.29
1218.75
1264.33
1313.95
1371.72
1435.81
1512.61
1598.23
1702.78
1818.53
1962.14
2118.1
2315.6
2524.93
2801.03
3087.05
3486.42
3893.43
4519.38
5203.01
6405.91
7867.85
10521
13790.7
19518.1
25939.6
35814.5
42606.3
51423.8
60706.7
88494.3
222004
257336
279300
316457
311652
294742
269938
262311
260278
267549
268636
268984
260157
250745
235754
221285
203354
185863
166436
147836
128904
111169
93738.4
77490.5
62365.4
49444.2
39056.4
31309.3
25674.6
21573.8
18491.7
16012.9
13928.9
12051.6
10394
8900.05
7652.81
6591.27
5773.37
5115.29
4651.15
4307.07
4106.82
4033.52
4085.43
4443.51
4964.47
427.121
504.667
635.325
833.091
1078.29
1317
1499.1
1604.8
1640.42
1625.72
1579.53
1514.97
1437.77
1349.15
1252.79
1166.79
1111.23
1091.47
1098.26
1121.35
1152.42
1189
1228.7
1273.57
1322.53
1379.73
1443.35
1519.85
1605.33
1710.01
1826.12
1970.49
2127.52
2326.69
2538.08
2817.22
3106.76
3511.44
3924.4
4559.28
5251.87
6469.3
7947.94
10635.8
13959.8
19810.9
26446.4
36767.2
44066.3
53319.4
62699.2
90799.6
226366
262617
289325
332204
328929
311463
284495
275871
273693
281725
283746
284903
276477
267070
251721
236627
217870
199418
178936
159238
139225
120494
102184
85143.1
69190.9
55343.9
43980.5
35350.2
29001.6
24363.9
20886
18103.1
15771.6
13666.9
11795.1
10088.8
8649.35
7411.64
6451.99
5674.6
5124.72
4711.7
4468.5
4362.15
4401.3
4753.98
5295.26
428.201
507.153
639.628
839.085
1084.99
1323.06
1503.7
1608.22
1643.7
1630.18
1586.36
1524.97
1451.28
1366.11
1272.26
1186.77
1129.94
1108.32
1113.43
1135.2
1165.22
1200.89
1239.74
1283.82
1332.04
1388.62
1451.7
1527.86
1613.17
1717.97
1834.44
1979.6
2137.75
2338.7
2552.28
2834.66
3127.98
3538.34
3957.71
4602.2
5304.57
6537.72
8034.38
10759.2
14140.4
20120.3
26977.8
37763.2
45606.6
55346.4
64835.7
93234.8
230881
268267
300082
349099
347560
329519
300102
290205
287657
296310
299186
301105
293067
283648
267935
252200
232605
213175
191627
170821
149714
129967
110761
92937.4
76213.7
61515
49224.8
39716.1
32631.2
27426.7
23526.5
20419.8
17827
15483.2
13384.8
11449.7
9798.53
8362.15
7239.63
6323.12
5672.14
5177.22
4882.48
4735.99
4758.88
5102.63
5665
429.313
509.715
644.067
845.279
1091.93
1329.4
1508.64
1612.03
1647.46
1635.29
1594.06
1536.1
1466.18
1384.65
1293.47
1208.61
1150.52
1126.94
1130.24
1150.57
1179.41
1214.07
1251.98
1295.2
1342.6
1398.47
1460.95
1536.72
1621.81
1726.71
1843.54
1989.53
2148.85
2351.68
2567.6
2853.41
3150.79
3567.22
3993.48
4648.31
5361.28
6611.44
8127.56
10891.7
14333.1
20447.5
27535.4
38804.4
47230.5
57512.8
67126.9
95809.4
235559
274323
311627
367207
367630
349007
316842
305374
302201
311313
314948
317573
309899
300449
284364
267970
247525
227101
204479
182555
160345
139561
119442
100833
83375.8
67894.4
54737.8
44372.9
36542.8
30750.4
26406.9
22960.5
20095.6
17505
15171.8
12995.3
11115.1
9458.35
8151.16
7074.05
6304.73
5713.04
5356.72
5161.7
5164.07
5494.59
6078.64
430.459
512.356
648.647
851.684
1099.14
1336.06
1513.93
1616.27
1651.76
1641.1
1602.69
1548.44
1482.55
1404.9
1316.59
1232.48
1173.13
1147.49
1148.83
1167.58
1195.13
1228.68
1265.54
1307.8
1354.28
1409.36
1471.17
1546.49
1631.32
1736.29
1853.48
2000.32
2160.87
2365.69
2584.07
2873.55
3175.25
3598.16
4031.81
4697.74
5422.22
6690.73
8227.85
11033.9
14538.7
20793.6
28120.8
39892.8
48941.3
59826.9
69584.2
98533.8
240415
280825
324017
386592
389221
370030
334808
321443
317363
326746
331027
334290
326948
317444
300974
283905
262599
241167
217463
194412
171091
149258
128204
108797
90629.1
74422.5
60463.9
49278.3
40707.1
34314.7
29512.9
25715.2
22571.6
19730.7
17159.2
14733.6
12611.3
10714.7
9201.46
7941.27
7034.78
6329.58
5900.11
5646.75
5623.48
5935.54
6541.58
431.641
515.08
653.377
858.311
1106.64
1343.06
1519.6
1620.96
1656.64
1647.66
1612.32
1562.08
1500.53
1427
1341.75
1258.55
1197.96
1170.16
1169.38
1186.41
1212.53
1244.84
1280.55
1321.73
1367.2
1421.4
1482.45
1557.25
1641.76
1746.78
1864.31
2012.03
2173.87
2380.77
2601.77
2895.14
3201.44
3631.25
4072.83
4750.65
5487.59
6775.88
8335.63
11186.3
14758.1
21159.9
28735.6
41030.4
50742.5
62297.2
72219.9
101419
245462
287813
337314
407316
412415
392687
354094
338483
333180
342627
347419
351238
344188
334602
317735
299974
277795
255344
230551
206367
181932
159036
137031
116808
97935.6
81046.4
66347.6
54385.1
45087.5
38091.4
32822.3
28666.6
25241.6
22151.9
19343.9
16667.5
14295.2
12143.4
10404.5
8938.84
7875.26
7038.16
6522.4
6199.41
6144.42
6431.77
7059.7
432.861
517.891
658.262
865.171
1114.43
1350.41
1525.7
1626.16
1662.14
1655.04
1623.02
1577.11
1520.24
1451.1
1369.14
1287.01
1225.21
1195.15
1192.1
1207.23
1231.77
1262.72
1297.13
1337.14
1381.47
1434.7
1494.89
1569.09
1653.22
1758.25
1876.1
2024.71
2187.89
2396.98
2620.75
2918.23
3229.43
3666.59
4116.64
4807.2
5557.59
6867.18
8451.33
11349.6
14992
21547.6
29381.7
42219.8
52637.4
64932.6
75047
104477
250716
295332
351582
429438
437288
417077
374801
356573
349701
358976
364124
368405
361598
351896
334617
316147
293087
269605
243717
218396
192844
168878
145906
124847
105266
87722.5
72337.1
59645
49643.5
42046.9
36306.6
31790.4
28085.4
24752.6
21715.4
18793.2
16169.5
13752.7
11772.2
10080
8839.25
7850.63
7234.07
6828.67
6734.84
6990.1
7639.31
434.119
520.792
663.31
872.277
1122.54
1358.14
1532.24
1631.89
1668.32
1663.29
1634.88
1593.64
1541.79
1477.35
1398.93
1318.07
1255.1
1222.68
1217.19
1230.26
1253.04
1282.47
1315.46
1354.15
1397.23
1449.35
1508.58
1582.09
1665.77
1770.76
1888.92
2038.44
2203
2414.38
2641.07
2942.91
3259.31
3704.27
4163.38
4867.54
5632.43
6964.94
8575.36
11524.3
15241.5
21958.4
30061.4
43463.5
54629.8
67742.2
78079.6
107721
256192
303433
366889
453016
463909
443297
397028
375793
366974
375815
381145
385778
379154
369300
351589
332394
308444
283923
256938
230478
203808
178767
154815
132902
112601
94415.9
78386.7
65011.2
54333.4
46144.2
39932.4
35056.4
31076
27510
24255.8
21099.4
18230.3
15545.8
13312.8
11376.3
9939.16
8778.99
8046.04
7544.07
7403.19
7617.82
8287.01
435.419
523.787
668.529
879.642
1131
1366.29
1539.26
1638.2
1675.23
1672.49
1647.97
1611.78
1565.34
1505.92
1431.32
1351.93
1287.87
1253.01
1244.89
1255.7
1276.56
1304.3
1335.71
1372.92
1414.6
1465.5
1523.65
1596.37
1679.51
1784.41
1902.83
2053.28
2219.26
2433.04
2662.8
2969.23
3291.16
3744.39
4213.15
4931.83
5712.34
7069.47
8708.17
11711.2
15507.5
22393.8
30776.7
44764.4
56723.7
70735
81332.5
111165
261907
312166
383306
478103
492340
471434
420879
396232
385056
393175
398487
403349
396837
386787
368622
348687
323841
298274
270190
242589
214803
188685
163747
140960
119924
101101
84458.4
70441.5
59116.5
50345.6
43664.2
38430.7
34181.5
30395.2
26940.4
23567.6
20466.2
17519.4
15029.8
12836.2
11185.8
9834.64
8969.19
8355.41
8158.29
8322.55
9009.59
436.761
526.882
673.927
887.278
1139.8
1374.87
1546.81
1645.15
1682.92
1682.7
1662.39
1631.63
1591.02
1537.01
1466.52
1388.84
1323.78
1286.39
1275.47
1283.81
1302.53
1328.41
1358.05
1393.64
1433.76
1483.28
1540.21
1612.03
1694.53
1799.27
1917.93
2069.3
2236.75
2453.02
2685.99
2997.27
3325.05
3787.05
4266.09
5000.25
5797.54
7181.08
8850.19
11911
15791
22855.4
31530.2
46126
58923
73920.6
84821.6
114823
267880
321587
400907
504747
522633
501571
446457
417981
404011
411090
416161
421111
414629
404333
385689
364999
339250
312633
283449
254709
225810
198617
172687
149014
127225
107758
90522
75898.9
63956.1
54615.7
47466.4
41877.9
37366.9
33374.6
29738.7
26172.3
22858.5
19663.1
16920.6
14463.4
12587
11027.5
10013.8
9272.38
9008.93
9111.98
9813.8
438.148
530.08
679.513
895.202
1148.99
1383.91
1554.91
1652.77
1691.46
1694
1678.23
1653.31
1618.98
1570.79
1504.75
1429.06
1363.11
1323.13
1309.21
1314.85
1331.22
1355.02
1382.71
1416.49
1454.86
1502.85
1558.4
1629.19
1710.94
1815.45
1934.29
2086.58
2255.52
2474.39
2710.74
3027.11
3361.07
3832.35
4322.32
5072.96
5888.26
7300.11
9001.91
12124.4
16093.2
23345.1
32324.7
47551.9
61232.2
77308.5
88563.5
118713
274129
331756
419768
532993
554831
533778
473861
441136
423904
429598
434181
439061
432516
421917
402764
381303
354646
326975
296695
266819
236811
208545
181621
157051
134494
114374
96554.7
81353.1
68820
58922.6
51306.3
45363.1
40596
36412.2
32615.8
28882.2
25381.5
21959
18975.6
16256.5
14146.9
12365.2
11188.6
10303.9
9963.54
9993.63
10706.1
439.581
533.386
685.296
903.427
1158.58
1393.46
1563.61
1661.12
1700.91
1706.45
1695.57
1676.94
1649.4
1607.47
1546.26
1472.86
1406.18
1363.54
1346.44
1349.14
1362.91
1384.41
1409.91
1441.67
1478.11
1524.38
1578.38
1647.99
1728.87
1833.05
1952
2105.21
2275.66
2497.23
2737.09
3058.82
3399.31
3880.39
4381.97
5150.12
5984.72
7426.88
9163.8
12352
16415.2
23864.9
33163.1
49046.3
63656.2
80908.2
92576.1
122851
280677
342736
439970
562879
588963
568113
503188
465795
444809
448746
452564
457199
450483
439518
419822
397572
370003
341279
309905
278896
247786
218452
190537
165063
141725
120939
102540
86780.1
73681.3
63239.4
55155.7
48855
43834.3
39471.3
35534.9
31662.1
28004.1
24382.8
21178.1
18207.4
15864.1
13851.5
12500
11457.7
11029.6
10974.4
11692.2
441.064
536.807
691.285
911.969
1168.59
1403.53
1572.96
1670.25
1711.33
1720.16
1714.52
1702.66
1682.44
1647.28
1591.32
1520.54
1453.31
1407.98
1387.49
1387
1397.9
1416.84
1439.93
1469.44
1503.71
1548.05
1600.32
1668.58
1748.44
1852.19
1971.18
2125.27
2297.26
2521.6
2765.14
3092.48
3439.85
3931.27
4445.16
5231.9
6087.15
7561.73
9336.34
12594.8
16758.1
24416.8
34048.6
50613.8
66200.2
84729.5
96878.1
127256
287544
354597
461596
594440
625044
604619
534525
492058
466805
468583
471337
475531
468522
457117
436841
413783
385297
355519
323059
290924
258719
228322
199419
173039
148910
127447
108465
92161.9
78518.8
67544.6
58991.7
52327.2
47050.6
42517
38458.7
34474.8
30691
26904.1
23504.8
20301.3
17731.5
15485.8
13951.4
12739
12213
12060.2
12776.9
442.598
540.346
697.491
920.846
1179.05
1414.17
1582.99
1680.21
1722.79
1735.18
1735.19
1730.59
1718.27
1690.44
1640.19
1572.43
1504.87
1456.84
1432.77
1428.8
1436.55
1452.65
1473.03
1500.04
1531.9
1574.08
1624.39
1691.12
1769.79
1872.98
1991.93
2146.86
2320.4
2547.6
2794.96
3128.17
3482.79
3985.1
4512.02
5318.47
6195.79
7704.99
9520.03
12853.4
17123.3
25003.1
34984.7
52259.7
68870
88782.3
101489
131948
294754
367409
484730
627703
663079
643321
567951
520022
489976
489167
490527
494065
486626
474701
453799
429912
400505
369676
336135
302881
269590
238139
208254
180968
156041
133891
114323
97485.3
83316
71821.9
62797.9
55759.4
50219.6
45518.3
41352.2
37283.1
33405.1
29489
25927
22517.1
19735.7
17262.2
15541.5
14150.4
13517.4
13255.2
13963.4
444.186
544.01
703.924
930.074
1189.99
1425.41
1593.76
1691.08
1735.36
1751.63
1757.69
1760.87
1757.07
1737.2
1693.18
1628.86
1561.24
1510.54
1482.68
1474.96
1479.22
1492.18
1509.56
1533.77
1562.93
1602.7
1650.8
1715.79
1793.08
1895.58
2014.36
2170.09
2345.17
2575.31
2826.63
3165.98
3528.2
4041.98
4582.69
5410
6310.86
7857
9715.38
13128.8
17512
25626.1
35975.2
53989.7
71672.1
93076.6
106430
136950
302333
381250
509460
662693
703055
684227
603534
549785
514407
510562
510170
512817
504793
492255
470677
445937
415603
383726
349115
314751
280382
247886
217026
188838
163111
140268
120109
102742
88061.3
76059.7
66563.2
59138.4
53322.4
48450
44184.3
40051.8
36109.6
32101.3
28412
24828.4
21857.4
19169
17264.7
15690.6
14943.5
14561.5
15253
445.83
547.805
710.595
939.673
1201.43
1437.3
1605.31
1702.9
1749.13
1769.58
1782.12
1793.66
1799.05
1787.8
1750.59
1690.21
1622.84
1569.52
1537.71
1525.92
1526.36
1535.82
1549.86
1570.96
1597.11
1634.17
1679.79
1742.79
1818.49
1920.13
2038.62
2195.08
2371.68
2604.83
2860.24
3206
3576.19
4102.02
4657.28
5506.66
6432.6
8018.09
9922.88
13421.7
17925.6
26288.3
37024.2
55810.3
74613.7
97622.3
111723
142285
310306
396201
535875
699427
744947
727323
641327
581436
540191
532835
530308
531806
523026
509772
487460
461839
430571
397649
361977
326514
291079
257546
225721
196637
170112
146572
125818
107925
92746.5
80249.9
70281.4
62457.2
56347.4
51293.5
46929.8
42750
38769.8
34705.1
30925.1
27204.7
24072
21189.3
19109.8
17354.1
16488.7
15978.5
16644.8
447.534
551.738
717.516
949.662
1213.41
1449.86
1617.69
1715.75
1764.17
1789.14
1808.61
1829.1
1844.4
1842.51
1812.76
1756.85
1690.11
1634.28
1598.35
1582.19
1578.42
1584.01
1594.33
1611.95
1634.73
1668.76
1711.59
1772.33
1846.21
1946.79
2064.85
2221.95
2400.04
2636.25
2895.9
3248.31
3626.85
4165.32
4735.93
5608.61
6561.23
8188.6
10143
13733
18365.5
26992.4
38136.2
57728.7
77702.8
102430
117389
147978
318701
412345
564065
737922
788717
772579
681364
615061
567418
556063
550990
551058
541333
527247
504135
477600
445390
411427
374705
338154
301664
267106
234326
204354
177036
152798
131449
113033
97366.7
84388.1
73950.4
65714.5
59290.4
54037.9
49570.2
45352
41354.9
37266.4
33431.6
29613.5
26351.3
23301.1
21061.3
19131
18146.5
17502.7
18135.1
449.3
555.814
724.699
960.061
1225.94
1463.14
1630.98
1729.69
1780.56
1810.4
1837.28
1867.35
1893.32
1901.6
1880.03
1829.2
1763.54
1705.35
1665.15
1644.3
1635.93
1637.24
1643.41
1657.15
1676.18
1706.8
1746.49
1804.67
1876.44
1975.75
2093.19
2250.84
2430.37
2669.68
2933.68
3293
3680.28
4231.99
4818.76
5716.01
6696.97
8368.86
10376.4
14063.5
18833.2
27741.2
39315.9
59752.8
80948.5
107510
123453
154055
327549
429773
594123
778188
834316
819940
723663
650733
596181
580324
572270
570606
559726
544680
520692
493205
460041
425039
387281
349655
312122
276550
242827
211978
183874
158944
137000
118064
101920
88471.9
77570.7
68913.5
62153.3
56680
52094.6
47839.2
43839.4
39754.8
35898.9
32022.2
28665.1
25479.1
23098.9
21007.2
19906.3
19127.2
19717.4
451.131
560.042
732.158
970.891
1239.07
1477.19
1645.21
1744.8
1798.38
1833.47
1868.27
1908.58
1946.02
1965.35
1952.76
1907.69
1843.62
1783.29
1738.73
1712.86
1699.46
1696.03
1697.6
1707.01
1721.83
1748.64
1784.8
1840.07
1909.42
2007.21
2123.84
2281.9
2462.8
2705.24
2973.7
3340.19
3736.57
4302.13
4905.9
5829
6840.04
8559.16
10623.4
14414
19330.1
28537.4
40568.2
61891.2
84361
112874
129939
160546
336880
448574
626139
820235
881682
869335
768220
688514
626571
605704
594209
590489
578225
562076
537126
508644
474510
438472
399689
360999
322438
285865
251212
219498
190620
165004
142469
123018
106405
92501.3
81144.7
72060.3
64943.5
59223.2
54499.9
50200.1
46204.6
42145.4
38297.7
34399.6
30982.9
27696
25199.5
22964.8
21754.3
20841.8
21382.9
453.031
564.429
739.906
982.177
1252.83
1492.05
1660.45
1761.15
1817.75
1858.46
1901.7
1952.94
2002.73
2034.05
2031.32
1992.78
1930.87
1868.71
1819.71
1788.52
1769.64
1760.98
1757.43
1762.02
1772.13
1794.67
1826.85
1878.83
1945.4
2041.4
2156.96
2315.29
2497.47
2743.05
3016.06
3389.96
3795.82
4375.85
4997.45
5947.75
6990.64
8759.83
10884.5
14785.5
19857.6
29384.2
41898.6
64153.4
87951.6
118532
136870
167482
346727
468845
660205
864069
930745
920674
815009
728450
658675
632289
616875
610753
596855
579447
553437
523907
488785
451709
411913
372174
332598
295038
259468
226904
197266
170976
147858
127897
110825
96477.5
84676.3
75162.8
67671.7
61677.2
56790.1
52431
48438.7
44419
40603.7
36718.1
33275.8
29923.9
27338.4
24983.4
23673.6
22633.8
23119.9
455.004
568.982
747.957
993.94
1267.26
1507.78
1676.76
1778.82
1838.73
1885.49
1937.71
2000.62
2063.67
2108
2116.1
2084.92
2025.86
1962.23
1908.8
1871.99
1847.16
1832.74
1823.51
1822.72
1827.58
1845.33
1873.04
1921.28
1984.68
2078.54
2192.79
2351.19
2534.53
2783.24
3060.89
3442.43
3858.12
4453.24
5093.55
6072.39
7148.96
8971.13
11160.2
15178.6
20417.5
30284.6
43312.8
66549.6
91732.8
124499
144274
174895
357125
490682
696411
909697
981430
973851
863985
770570
692572
660169
640342
631451
615649
596808
569627
538992
502856
464739
423938
383166
342591
304058
267587
234190
203807
176857
153165
132704
115181
100403
88169.8
78229.9
70351.1
64055.9
58975.6
54535.3
50537.4
46563.7
42798.8
38954.4
35518.2
32136.7
29490.5
27041.1
25645.3
24488.1
24915.1
457.052
573.71
756.327
1006.21
1282.39
1524.42
1694.22
1797.89
1861.45
1914.68
1976.46
2051.79
2129.06
2187.49
2207.48
2184.59
2129.14
2064.51
2006.72
1964.03
1932.78
1912.04
1896.5
1889.73
1888.72
1901.1
1923.77
1967.79
2027.56
2118.93
2231.53
2389.79
2574.15
2825.96
3108.3
3497.69
3923.6
4534.41
5194.29
6203.06
7315.19
9193.34
11450.9
15594.3
21011
31241.7
44816.6
69090.6
95718.6
130786
152174
182820
368112
514184
734843
957124
1.03366e+06
1.02875e+06
915078
814885
728337
689434
664689
652645
634646
614183
585708
553899
516717
477553
435752
393965
352406
312916
275561
241348
210239
182645
158394
137441
119478
104283
91630.1
81270.2
72995.5
66375.9
61071.8
56523
52503.5
48574.3
44871
41091.1
37688.9
34311
31632.5
29116.2
27649.9
26388.2
26754
459.181
578.623
765.032
1019
1298.25
1542.03
1712.9
1818.45
1886
1946.15
2018.09
2106.63
2199.13
2272.83
2305.85
2292.28
2241.3
2176.26
2114.26
2065.47
2027.32
1999.65
1977.15
1963.72
1956.15
1962.51
1979.53
2018.76
2074.39
2162.85
2273.45
2431.32
2616.5
2871.36
3158.42
3555.88
3992.33
4619.46
5299.78
6339.86
7489.48
9426.69
11757.1
16033.1
21639.7
32258.8
46416.1
71788.3
99923.9
137407
160598
191295
379725
539448
775584
1.00636e+06
1.08734e+06
1.08523e+06
968200
861386
766030
720173
690001
674401
653894
631603
601695
568633
530366
490143
447349
404561
362035
321604
283383
248375
216561
188343
163547
142114
123721
108120
95062.4
84292.1
75618.6
68655.4
63097.8
58409.8
54346.5
50452.9
46815.5
43116.9
39771.9
36427.5
33743.8
31188.1
29668.4
28317.4
28621.5
461.394
583.73
774.088
1032.35
1314.9
1560.67
1732.85
1840.59
1912.49
1980.03
2062.76
2165.34
2274.11
2364.3
2411.6
2408.49
2362.95
2298.18
2232.21
2177.17
2131.65
2096.45
2066.26
2045.43
2030.55
2030.17
2040.83
2074.65
2125.57
2210.64
2318.83
2476.01
2661.8
2919.6
3211.4
3617.1
4064.45
4708.48
5410.12
6482.91
7671.99
9671.39
12079.1
16495.9
22305
33339
48117.8
74654.7
104365
144380
169572
200359
392005
566572
818712
1.0574e+06
1.14239e+06
1.14316e+06
1.02324e+06
910039
805701
752471
716365
696794
673447
649105
617611
583206
543802
502509
458722
414949
371471
330118
291050
255269
222772
193951
168627
146728
127916
111921
98472.2
87303.1
78232.7
70912.3
65074.4
60215.3
56081.6
52207.9
48634.1
45026.9
41757.5
38472
35807.8
33239.1
31683.2
30259.6
30503.2
463.696
589.04
783.514
1046.29
1332.38
1580.39
1754.18
1864.41
1941.03
2016.45
2110.63
2228.11
2354.24
2462.21
2525.13
2533.69
2494.66
2430.97
2361.43
2300.05
2246.73
2203.35
2164.71
2135.68
2112.66
2104.74
2108.26
2135.96
2181.51
2262.65
2367.96
2524.11
2710.24
2970.87
3267.39
3681.48
4140.04
4801.57
5525.41
6632.3
7862.83
9927.61
12417.2
16983.3
23008.3
34485.4
49928
77702.8
109060
151719
179121
210053
404995
595651
864298
1.11027e+06
1.19874e+06
1.20239e+06
1.08008e+06
960793
847383
786407
743871
719904
693367
666735
633485
597635
557035
514650
469870
425125
380710
338455
298561
262030
228876
199473
173640
151289
132069
115692
101865
90310.4
80849.1
73163.5
67023
61961.8
57728.4
53853.7
50335
46823
43642.1
40436
37812.9
35255.3
33679.9
32200.6
32386.2
466.091
594.565
793.327
1060.85
1350.72
1601.26
1776.94
1890
1971.75
2055.56
2161.85
2295.12
2439.74
2566.85
2646.8
2668.38
2637.04
2575.37
2502.75
2435.06
2373.56
2321.37
2273.48
2235.39
2203.3
2186.95
2182.46
2203.25
2242.71
2319.3
2421.2
2575.91
2762.08
3025.36
3326.55
3749.17
4219.22
4898.82
5645.72
6788.11
8062.1
10195.5
12771.7
17495.7
23750.8
35701.3
51853.4
80945.6
114027
159445
189272
220420
418739
626777
912403
1.16496e+06
1.25631e+06
1.26278e+06
1.13856e+06
1.01357e+06
891093
822055
772609
743817
713725
684546
649353
611943
570078
526572
480795
435088
389753
346615
305918
268663
234876
204916
178594
155805
136188
119439
105247
93320
83477.1
75423.9
68964.2
63672.9
59309.9
55409.6
51932.3
48513.3
45428.4
42317
39752.8
37227.1
35647.6
34128.6
34259.7
468.585
600.315
803.548
1076.06
1369.98
1623.35
1801.24
1917.47
2004.77
2097.5
2216.61
2366.58
2530.86
2678.5
2776.98
2813.01
2790.65
2732.08
2657.04
2583.19
2513.19
2451.57
2393.59
2345.52
2303.37
2277.62
2264.14
2277.15
2309.68
2381.04
2478.92
2631.73
2817.56
3083.3
3389.05
3820.29
4302.11
5000.32
5771.12
6950.4
8269.87
10475.1
13142.8
18033.7
24533.7
36989.4
53900.5
84396.4
119287
167577
200051
231507
433284
660035
963081
1.22148e+06
1.31501e+06
1.32418e+06
1.19855e+06
1.06828e+06
936830
859475
802669
768622
734597
702598
665261
626162
582949
538287
491500
444838
398600
354601
313125
275173
240780
210289
183496
160285
140282
123170
108625
96338
86124.7
77706.4
70916.8
65372.1
60851
56898.4
53445.1
50111.4
47124.9
44118.2
41626.6
39149.5
37579.3
36035.4
36115.6
471.184
606.303
814.197
1091.94
1390.21
1646.72
1827.16
1946.93
2040.21
2142.43
2275.08
2442.69
2627.82
2797.43
2916.01
2968.02
2956.05
2901.79
2825.14
2745.43
2666.72
2595.09
2526.17
2467.15
2413.87
2377.64
2354.1
2358.33
2383.02
2448.36
2541.52
2691.91
2876.98
3144.9
3455.08
3895
4388.82
5106.15
5901.69
7119.19
8486.17
10766.5
13530.6
18597.6
25358.2
38352.7
56075.5
88068.7
124859
176138
211483
243358
448678
695503
1.01637e+06
1.27985e+06
1.3748e+06
1.38645e+06
1.25988e+06
1.1248e+06
984572
898717
834137
794414
756066
720960
681259
640328
595675
549810
501998
454382
407257
362419
320191
281570
246599
215600
188358
164737
144358
126893
112003
99369.5
88798.3
80021.4
72897.4
67081.5
62377.3
58345.7
54896.5
51636.1
48745.9
45848.4
43438.6
41022.9
39472.7
37916.1
37949
473.893
612.541
825.297
1108.55
1411.46
1671.44
1854.79
1978.5
2078.21
2190.49
2337.43
2523.65
2730.85
2923.91
3064.23
3133.83
3133.76
3085.14
3007.86
2922.77
2835.25
2753.1
2672.42
2601.43
2535.87
2488
2453.21
2447.57