/*--------------------------------*- C++ -*----------------------------------*\
| =========                 |                                                 |
| \\      /  F ield         | OpenFOAM: The Open Source CFD Toolbox           |
|  \\    /   O peration     | Version:  2412                                  |
|   \\  /    A nd           | Website:  www.openfoam.com                      |
|    \\/     M anipulation  |                                                 |
\*---------------------------------------------------------------------------*/
FoamFile
{
    version     2.0;
    format      ascii;
    arch        "LSB;label=32;scalar=64";
    class       volScalarField;
    location    "0.6";
    object      k;
}
// * * * * * * * * * * * * * * * * * * * * * * * * * * * * * * * * * * * * * //

dimensions      [0 2 -2 0 0 0 0];

internalField   nonuniform List<scalar> 
13077
(
40.0948
44.2203
50.5786
59.0143
67.8752
74.7293
78.0819
77.8969
75.1289
71.037
66.7161
63.0122
60.4452
59.1087
58.7299
59.0622
59.917
61.1157
62.4674
63.8961
65.3443
66.8534
68.3998
70.0628
71.8002
73.7264
75.7575
78.0663
80.4965
83.3147
86.2449
89.7111
93.2277
97.5054
101.721
107.094
112.196
119.09
125.543
40.1414
44.3188
50.7262
59.186
68.0288
74.8291
78.1177
77.8836
75.0886
70.9866
66.6619
62.9541
60.3868
59.0605
58.6935
59.0263
59.8742
61.0667
62.4159
63.8438
65.2914
66.7993
68.3442
70.0048
71.7396
73.6624
75.69
77.9947
80.4206
83.2336
86.1585
89.6184
93.1284
97.3979
101.605
106.966
112.055
118.93
125.361
135.101
144.999
161.227
178.351
204.508
229.264
261.956
284.538
312.407
328.044
375.015
436.292
563.88
970.814
1016.89
857.122
727.541
624.944
541.237
475.262
424.367
379.771
341.894
304.684
273.893
245.205
222.736
202.264
185.864
170.642
40.1891
44.4196
50.8771
59.3612
68.1856
74.9316
78.1555
77.8722
75.0509
70.9401
66.6133
62.9026
60.3349
59.0175
58.6613
58.994
59.8341
61.0198
62.3657
63.7924
65.2393
66.746
68.2891
69.9473
71.6793
73.5988
75.6228
77.9233
80.3448
83.1527
86.0723
89.5259
93.0295
97.2907
101.489
106.838
111.915
118.772
125.181
134.881
144.726
160.864
177.892
203.91
228.594
261.236
284.051
312.26
328.198
374.957
436.338
565.619
976.91
1020.3
861.064
732.989
630.401
546.659
480.917
430.946
387.515
350.798
314.293
283.769
254.824
231.908
210.765
193.685
177.649
164.158
151.704
141.065
131.198
122.507
114.94
109.061
104.711
101.318
98.2445
95.0604
91.6812
88.1663
84.7202
81.5344
78.7783
76.5531
74.8301
73.6
72.6878
72.1428
71.7261
71.6929
71.6537
72.2381
72.6516
74.3658
75.7196
80.6207
83.9496
40.238
44.5227
51.0313
59.5404
68.346
75.0369
78.1956
77.863
75.0161
70.8978
66.5707
62.8582
60.2897
58.98
58.6335
58.9655
59.7969
60.9748
62.3169
63.742
65.1879
66.6931
68.2344
69.89
71.6192
73.5351
75.5555
77.8518
80.2689
83.0716
85.986
89.4333
92.9305
97.1837
101.373
106.711
111.775
118.615
125.002
134.664
144.455
160.501
177.432
203.304
227.909
260.491
283.538
312.096
328.364
374.909
436.37
567.298
982.867
1023.57
865.043
738.632
636.085
552.267
486.688
437.599
395.332
359.794
324.056
293.864
264.745
241.433
219.668
201.931
185.105
170.814
157.469
146.002
135.337
125.892
117.524
110.899
105.979
102.278
99.0947
95.9111
92.5656
89.0699
85.6047
82.3488
79.4859
77.1293
75.2819
73.9411
72.95
72.3447
71.897
71.8393
71.7985
72.3752
72.8008
74.5145
75.8792
80.7901
84.1436
40.288
44.6283
51.1892
59.7237
68.5104
75.1456
78.2383
77.8564
74.9845
70.8602
66.5343
62.8214
60.252
58.9485
58.6106
58.9409
59.7629
60.9321
62.2696
63.6925
65.1372
66.6408
68.1801
69.8329
71.5592
73.4715
75.4882
77.7801
80.1928
82.9903
85.8995
89.3406
92.8316
97.0768
101.258
106.585
111.637
118.459
124.826
134.449
144.187
160.14
176.969
202.688
227.208
259.719
282.995
311.91
328.538
374.87
436.386
568.913
988.68
1026.71
869.071
744.484
642.015
558.073
492.579
444.319
403.203
368.851
333.936
304.132
274.914
251.256
228.919
210.549
192.961
177.882
163.65
151.338
139.853
129.646
120.462
113.043
107.47
103.385
100.045
96.8449
93.5321
90.062
86.5851
83.2633
80.2914
77.7942
75.809
74.3424
73.2592
72.5825
72.0959
72.0081
71.9624
72.5286
72.9659
74.6768
76.0529
80.9671
84.3451
40.3394
44.7365
51.3508
59.9114
68.6789
75.2577
78.284
77.8527
74.9565
70.8277
66.505
62.793
60.2223
58.9236
58.5929
58.9208
59.7322
60.8917
62.2239
63.6442
65.0873
66.589
68.1262
69.7761
71.4993
73.4079
75.4208
77.7083
80.1166
82.9088
85.8129
89.2477
92.7325
96.9699
101.143
106.459
111.5
118.304
124.652
134.236
143.922
159.779
176.504
202.063
226.492
258.92
282.422
311.699
328.719
374.841
436.386
570.46
994.342
1029.72
873.16
750.563
648.212
564.099
498.597
451.101
411.111
377.947
343.898
314.531
285.284
261.326
238.464
219.488
201.168
185.317
170.211
157.045
144.729
133.751
123.754
115.511
109.21
104.659
101.108
97.8663
94.5829
91.1449
87.6657
84.2846
81.2042
78.5586
76.4221
74.8135
73.6232
72.8621
72.3275
72.2026
72.1482
72.7007
73.149
74.8548
76.2428
81.1536
84.5566
40.3921
44.8473
51.5163
60.1036
68.8519
75.3738
78.333
77.8523
74.9327
70.8009
66.4833
62.7736
60.2016
58.906
58.5811
58.9054
59.7052
60.8539
62.1799
63.5971
65.0383
66.5379
68.0727
69.7196
71.4395
73.3443
75.3533
77.6363
80.0401
82.8272
85.726
89.1547
92.6335
96.8632
101.029
106.333
111.364
118.151
124.481
134.027
143.661
159.42
176.038
201.431
225.761
258.095
281.819
311.462
328.905
374.822
436.37
571.936
999.852
1032.63
877.322
756.883
654.699
570.365
504.754
457.944
419.045
387.061
353.912
325.025
295.81
271.595
248.254
228.696
209.676
193.073
177.114
163.095
149.94
138.188
127.388
118.311
111.224
106.122
102.295
98.9807
95.7195
92.3201
88.8498
85.4189
82.2334
79.4338
77.1333
75.3654
74.0513
73.1912
72.5978
72.4274
72.3595
72.8945
73.3526
75.0507
76.4514
81.3519
84.781
40.4461
44.9608
51.6857
60.3006
69.0296
75.494
78.3857
77.8557
74.9135
70.7803
66.4699
62.7641
60.1907
58.8966
58.5756
58.8952
59.6824
60.8191
62.138
63.5514
64.9903
66.4875
68.0197
69.6634
71.3799
73.2807
75.2858
77.5642
79.9635
82.7453
85.639
89.0616
92.5345
96.7567
100.915
106.209
111.229
118
124.312
133.82
143.402
159.063
175.572
200.791
225.016
257.242
281.184
311.196
329.095
374.815
436.339
573.341
1005.21
1035.44
881.571
763.462
661.501
576.894
511.062
464.848
426.994
396.172
363.95
335.577
306.451
282.019
258.241
238.128
218.438
201.104
184.317
169.453
155.459
142.933
131.345
121.442
113.529
107.798
103.621
100.193
96.9424
93.5872
90.1384
86.6706
83.3871
80.4312
77.9552
76.0104
74.5544
73.5783
72.9135
72.6878
72.6005
73.1134
73.5798
75.2672
76.6813
81.5645
85.0214
40.5016
45.0771
51.8594
60.5026
69.2121
75.6187
78.4425
77.8633
74.8995
70.7667
66.4657
62.7655
60.1906
58.896
58.5771
58.8909
59.6642
60.7877
62.0984
63.5074
64.9435
66.4379
67.9674
69.6076
71.3206
73.2173
75.2183
77.492
79.8868
82.6632
85.5518
88.9684
92.4356
96.6504
100.801
106.085
111.096
117.851
124.146
133.617
143.148
158.708
175.106
200.145
224.257
256.364
280.517
310.9
329.287
374.821
436.292
574.67
1010.4
1038.17
885.92
770.316
668.642
583.713
517.535
471.815
434.947
405.263
373.986
346.156
317.169
292.556
268.381
247.737
227.408
209.366
191.779
176.084
161.258
147.958
135.6
124.891
116.134
109.705
105.1
101.509
98.2508
94.9434
91.5301
88.0414
84.6715
81.561
78.9008
76.7618
75.1444
74.0336
73.2826
72.99
72.8762
73.3613
73.8341
75.5074
76.9358
81.7945
85.2815
40.5585
45.1964
52.0374
60.7097
69.3999
75.7482
78.5038
77.8757
74.8913
70.7608
66.4713
62.7785
60.2021
58.9053
58.5865
58.8928
59.6509
60.7599
62.0614
63.4651
64.898
66.3894
67.9157
69.5523
71.2616
73.154
75.1508
77.4198
79.8099
82.5811
85.4646
88.8752
92.3369
96.5445
100.689
105.962
110.964
117.704
123.983
133.417
142.899
158.357
174.641
199.493
223.487
255.461
279.819
310.571
329.48
374.842
436.232
575.923
1015.43
1040.84
890.383
777.458
676.147
590.848
524.191
478.849
442.896
414.317
383.996
356.732
327.929
303.168
278.634
257.483
236.544
217.816
199.46
182.954
167.308
153.238
140.127
128.639
119.041
111.859
106.747
102.933
99.6426
96.3835
93.0201
89.5298
86.0898
82.8316
79.9823
77.6335
75.8348
74.5684
73.7145
73.3414
73.1923
73.643
74.1194
75.7748
77.2183
82.0449
85.5651
40.6169
45.3186
52.2198
60.9223
69.5932
75.8829
78.5701
77.8934
74.8895
70.7631
66.4876
62.8041
60.2265
58.9255
58.6044
58.9018
59.6433
60.7362
62.0273
63.4249
64.854
66.3419
67.865
69.4976
71.203
73.0909
75.0834
77.3475
79.733
82.4988
85.3774
88.7821
92.2384
96.439
100.577
105.841
110.834
117.559
123.823
133.222
142.654
158.01
174.178
198.837
222.704
254.534
279.089
310.209
329.672
374.88
436.159
577.098
1020.3
1043.45
894.975
784.903
684.038
598.327
531.049
485.956
450.836
423.319
393.956
367.276
338.696
313.821
288.961
267.328
245.806
226.415
207.319
190.027
173.577
158.745
144.897
132.66
122.239
114.271
108.577
104.473
101.115
97.8996
94.6001
91.1301
87.6412
84.2485
81.2103
78.6391
76.6394
75.1954
74.2196
73.7502
73.5557
73.9638
74.4404
76.0735
77.5327
82.3196
85.8764
40.6769
45.444
52.4069
61.1404
69.7922
76.0232
78.6417
77.9168
74.8947
70.7745
66.5155
62.8434
60.2648
58.9576
58.6318
58.9186
59.6419
60.7172
61.9965
63.3871
64.8117
66.2958
67.8151
69.4436
71.1448
73.0281
75.0161
77.2753
79.6561
82.4165
85.2901
88.689
92.1401
96.334
100.466
105.72
110.706
117.417
123.667
133.031
142.415
157.667
173.717
198.177
221.912
253.584
278.329
309.811
329.863
374.936
436.075
578.193
1025.01
1046.04
899.708
792.663
692.339
606.179
538.13
493.146
458.761
432.256
403.846
377.764
349.442
324.481
299.33
277.236
255.159
235.128
215.322
197.27
180.038
164.454
149.883
136.926
125.711
116.943
110.601
106.134
102.664
99.482
96.2578
92.8319
89.3201
85.8127
82.5926
79.7912
77.5726
75.9282
74.8098
74.2261
73.9738
74.33
74.8023
76.408
77.8834
82.6225
86.22
40.7385
45.5727
52.5987
61.3643
69.9973
76.1694
78.7193
77.9466
74.9075
70.7957
66.5558
62.8975
60.3183
59.0029
58.6697
58.9439
59.6473
60.7033
61.9694
63.3519
64.7714
66.2511
67.7664
69.3904
71.0873
72.9656
74.949
77.2031
79.5792
82.3342
85.2029
88.596
92.0422
96.2296
100.356
105.601
110.58
117.277
123.516
132.846
142.182
157.33
173.261
197.516
221.112
252.613
277.539
309.378
330.049
375.013
435.982
579.208
1029.55
1048.62
904.598
800.748
701.07
614.433
545.459
500.429
466.67
441.116
413.647
388.17
360.137
335.12
309.708
287.177
264.569
243.921
223.435
204.649
186.661
170.338
155.06
141.407
129.435
119.87
112.829
107.924
104.289
101.119
97.978
94.6202
91.1155
87.5199
84.1327
81.0997
78.648
76.781
75.4978
74.7799
74.4556
74.7486
75.211
76.7834
78.2751
82.9581
86.6007
40.8018
45.7047
52.7955
61.5943
70.2087
76.322
78.8032
77.9833
74.9287
70.8275
66.6095
62.9674
60.3882
59.0626
58.7191
58.9786
59.6604
60.6952
61.9464
63.3198
64.7334
66.2082
67.719
69.3382
71.0303
72.9036
74.8821
77.131
79.5023
82.2518
85.1158
88.5032
91.9447
96.1258
100.247
105.484
110.456
117.141
123.368
132.665
141.956
156.999
172.809
196.854
220.304
251.622
276.719
308.908
330.23
375.112
435.883
580.14
1033.92
1051.2
909.657
809.165
710.251
623.118
553.061
507.819
474.563
449.89
423.341
398.473
370.757
345.708
320.067
297.12
274.008
252.765
231.627
212.136
193.417
176.374
160.403
146.078
133.384
123.041
115.267
109.852
105.986
102.8
99.7426
96.4756
93.0104
89.3597
85.8285
82.5709
79.8772
77.7676
76.2972
75.4232
75.0108
75.2275
75.6731
77.2053
78.7131
83.3312
87.0237
40.8669
45.8402
52.9975
61.8305
70.4269
76.4813
78.8939
78.0277
74.959
70.8707
66.6776
63.0543
60.4759
59.1382
58.7815
59.0238
59.6819
60.6936
61.9282
63.291
64.6979
66.1671
67.673
69.287
70.9742
72.8421
74.8156
77.059
79.4254
82.1695
85.0287
88.4106
91.8476
96.0227
100.139
105.369
110.335
117.008
123.226
132.49
141.737
156.675
172.363
196.193
219.491
250.614
275.873
308.401
330.404
375.236
435.779
580.99
1038.13
1053.8
914.9
817.92
719.897
632.262
560.963
515.334
482.442
458.571
432.913
408.653
381.276
356.22
330.379
307.04
283.448
261.632
239.871
219.702
200.282
182.538
165.89
150.913
137.532
126.439
117.915
111.925
107.759
104.513
101.533
98.375
94.9825
91.3152
87.6714
84.2056
81.2685
78.9006
77.2214
76.1686
75.65
75.7756
76.1961
77.68
79.2031
83.7473
87.4944
40.9338
45.9793
53.2048
62.0733
70.652
76.6477
78.9921
78.0802
74.9992
70.9263
66.7611
63.1593
60.5828
59.2312
58.8579
59.0806
59.7128
60.6992
61.9154
63.2662
64.6653
66.1282
67.6287
69.237
70.9189
72.7811
74.7495
76.9873
79.3488
82.0873
84.9418
88.3182
91.751
95.9204
100.033
105.255
110.217
116.878
123.088
132.322
141.525
156.359
171.924
195.534
218.674
249.59
275.001
307.858
330.571
375.387
435.675
581.758
1042.17
1056.45
920.34
827.015
730.021
641.892
569.196
522.993
490.312
467.153
442.349
418.692
391.672
366.634
340.62
316.913
292.865
270.499
248.14
227.322
207.229
188.808
171.501
155.889
141.854
130.043
120.769
114.151
109.61
106.252
103.329
100.293
97.0051
93.3627
89.6454
85.9981
82.8256
80.19
78.2831
77.0287
76.3844
76.4025
76.7879
78.2145
79.7513
84.212
88.0185
41.0025
46.122
53.4175
62.3229
70.8845
76.8218
79.0983
78.1416
75.0499
70.995
66.8609
63.2838
60.7104
59.3432
58.9501
59.1502
59.7542
60.7129
61.9085
63.2458
64.636
66.0919
67.5864
69.1885
70.8647
72.7209
74.6838
76.9158
79.2722
82.0052
84.8551
88.2261
91.655
95.8189
99.928
105.143
110.101
116.752
122.956
132.16
141.322
156.051
171.493
194.878
217.856
248.554
274.107
307.279
330.728
375.567
435.574
582.442
1046.04
1059.17
925.992
836.452
740.631
652.031
577.789
530.818
498.183
475.634
451.639
428.572
401.926
376.926
350.768
326.714
302.236
279.342
256.413
234.972
214.236
195.163
177.215
160.987
146.323
133.831
123.819
116.535
111.546
108.011
105.116
102.204
99.048
95.4732
91.7271
87.9349
84.5454
81.6415
79.4928
78.0156
77.2258
77.1183
77.4571
78.8161
80.3641
84.7313
88.6016
41.0733
46.2687
53.636
62.5796
71.1246
77.0039
79.213
78.2127
75.1121
71.0779
66.9782
63.4289
60.8603
59.4759
59.0596
59.2341
59.8073
60.7358
61.9085
63.2305
64.6105
66.0584
67.5462
69.1416
70.8118
72.6615
74.6187
76.8447
79.196
81.9232
84.7686
88.1343
91.5595
95.7183
99.8245
105.033
109.989
116.631
122.829
132.005
141.128
155.752
171.071
194.229
217.039
247.508
273.192
306.667
330.875
375.778
435.48
583.044
1049.75
1061.97
931.869
846.226
751.731
662.702
586.772
538.835
506.066
484.015
460.772
438.28
412.019
387.077
360.802
336.425
311.541
288.142
264.668
242.632
221.282
201.581
183.015
166.186
150.92
137.779
127.053
119.079
113.576
109.793
106.88
104.085
101.08
97.6136
93.887
89.9949
86.4176
83.2554
80.8576
79.1399
78.1851
77.9334
78.2128
79.4927
81.0483
85.3116
89.2493
41.1461
46.4193
53.8603
62.8436
71.3728
77.1946
79.3369
78.294
75.1865
71.1759
67.1141
63.5961
61.034
59.6312
59.1882
59.3337
59.8734
60.7688
61.9162
63.2208
64.5893
66.0281
67.5084
69.0966
70.7602
72.6031
74.5543
76.774
79.1199
81.8414
84.6823
88.0428
91.4647
95.6187
99.7226
104.925
109.88
116.513
122.708
131.857
140.943
155.464
170.659
193.587
216.225
246.455
272.261
306.023
331.013
376.024
435.398
583.565
1053.29
1064.88
937.984
856.331
763.32
673.921
596.178
547.071
513.975
492.297
469.743
447.803
421.934
397.068
370.7
346.025
320.761
296.879
272.887
250.282
228.346
208.043
188.882
171.471
155.624
141.866
130.454
121.783
115.709
111.603
108.615
105.913
103.071
99.7486
96.0902
92.1497
88.424
85.0249
82.3796
80.4096
79.2722
78.8578
79.064
80.2523
81.8108
85.9592
89.9671
41.2209
46.574
54.0907
63.1151
71.6294
77.3943
79.4706
78.3864
75.2741
71.29
67.2696
63.7866
61.2333
59.8112
59.3378
59.4509
59.9539
60.8134
61.9325
63.2177
64.5729
66.0016
67.4736
69.0537
70.7101
72.5458
74.4906
76.7037
79.0442
81.7598
84.5963
87.9517
91.3705
95.5201
99.6223
104.82
109.774
116.4
122.593
131.717
140.768
155.187
170.26
192.954
215.417
245.4
271.317
305.351
331.141
376.308
435.335
584.007
1056.67
1067.92
944.352
866.758
775.39
685.702
606.036
555.556
521.928
500.489
478.548
457.131
431.656
406.883
380.445
355.496
329.877
305.537
281.051
257.903
235.41
214.533
194.799
176.824
160.417
146.071
134.005
124.643
117.956
113.452
110.32
107.676
104.994
101.843
98.2991
94.365
90.5386
86.9356
84.055
81.8283
80.4947
79.9006
80.0192
81.1027
82.6583
86.6807
90.7598
41.298
46.733
54.3273
63.3945
71.8948
77.6035
79.6146
78.4906
75.3757
71.4211
67.446
64.0019
61.46
60.0178
59.5107
59.5875
60.0505
60.8708
61.9588
63.2219
64.5621
65.9793
67.442
69.0133
70.662
72.4898
74.4279
76.634
78.9689
81.6785
84.5106
87.8609
91.277
95.4225
99.5237
104.717
109.671
116.291
122.484
131.585
140.604
154.921
169.873
192.333
214.617
244.346
270.365
304.655
331.261
376.631
435.296
584.371
1059.88
1071.11
950.986
877.496
787.93
698.049
616.374
564.322
529.948
508.599
487.184
466.255
441.172
416.504
390.02
364.821
338.873
314.099
289.146
265.48
242.457
221.031
200.75
182.231
165.283
150.376
137.689
127.651
120.323
115.352
112.002
109.365
106.827
103.866
100.476
96.6027
92.7291
88.9654
85.8725
83.3947
81.8568
81.0688
81.0859
82.0514
83.597
87.4821
91.632
41.3774
46.8964
54.5705
63.6821
72.1694
77.8228
79.7698
78.6074
75.4923
71.5703
67.6443
64.2433
61.7158
60.2534
59.7091
59.7457
60.1651
60.9426
61.9961
63.2345
64.5577
65.9618
67.414
68.9757
70.6159
72.4353
74.3661
76.565
78.8941
81.5975
84.4252
87.7706
91.1843
95.3259
99.4268
104.617
109.573
116.187
122.383
131.462
140.451
154.669
169.501
191.725
213.828
243.298
269.41
303.94
331.375
376.998
435.29
584.661
1062.94
1074.48
957.899
888.53
800.921
710.965
627.219
573.402
538.058
516.64
495.655
475.17
450.472
425.919
399.409
373.984
347.734
322.551
297.156
272.998
249.471
227.523
206.719
187.676
170.208
154.764
141.487
130.798
122.815
117.319
113.674
110.981
108.556
105.788
102.583
98.8234
94.9583
91.0855
87.8139
85.101
83.3582
82.3668
82.27
83.1048
84.6325
88.3691
92.5869
41.4591
47.0644
54.8203
63.9781
72.4535
78.0527
79.9367
78.7377
75.6247
71.7387
67.8659
64.5123
62.0026
60.5202
59.9356
59.9278
60.2998
61.0307
62.046
63.2566
64.5605
65.9499
67.3903
68.9413
70.5722
72.3825
74.3056
76.4968
78.8197
81.5167
84.3401
87.6806
91.0922
95.2304
99.3318
104.519
109.478
116.088
122.288
131.347
140.309
154.43
169.144
191.133
213.054
242.26
268.457
303.213
331.486
377.413
435.325
584.88
1065.84
1078.05
965.107
899.845
814.339
724.442
638.593
582.831
546.286
524.628
503.964
483.873
459.545
435.116
408.598
382.972
356.445
330.878
305.067
280.442
256.438
233.993
212.691
193.145
175.177
159.219
145.384
134.072
125.436
119.37
115.353
112.532
110.174
107.589
104.591
100.988
97.1871
93.2618
89.8542
86.9332
84.9932
83.7954
83.5749
84.2678
85.769
89.3463
93.6271
41.5433
47.2371
55.077
64.2828
72.7476
78.2936
80.1161
78.8823
75.7739
71.9274
68.112
64.8104
62.3223
60.8207
60.1928
60.1363
60.4567
61.137
62.1101
63.2896
64.5715
65.9442
67.3715
68.9105
70.5313
72.3317
74.2465
76.4295
78.746
81.4364
84.2554
87.5911
91.0009
95.1361
99.2386
104.423
109.387
115.994
122.2
131.242
140.18
154.207
168.804
190.559
212.297
241.238
267.514
302.482
331.598
377.88
435.41
585.034
1068.59
1081.84
972.623
911.421
828.156
738.467
650.514
592.642
554.663
532.585
512.119
492.364
468.385
444.083
417.575
391.77
364.993
339.068
312.867
287.801
263.344
240.428
218.652
198.626
180.178
163.728
149.365
137.461
128.182
121.516
117.06
114.033
111.685
109.257
106.472
103.063
99.3765
95.4573
91.963
88.8707
86.7508
85.3509
85.001
85.5433
87.0093
90.4173
94.7535
41.6301
47.4147
55.3408
64.5966
73.052
78.5463
80.3086
79.0421
75.941
72.1374
68.3837
65.139
62.6768
61.1574
60.4836
60.374
60.6385
61.2637
62.1904
63.335
64.592
65.9458
67.3581
68.884
70.4935
72.2831
74.189
76.3632
78.673
81.3565
84.1712
87.502
90.9103
95.0428
99.1472
104.33
109.299
115.906
122.12
131.147
140.064
153.998
168.483
190.005
211.562
240.238
266.588
301.754
331.717
378.404
435.556
585.128
1071.18
1085.88
980.461
923.241
842.337
753.019
662.995
602.869
563.221
540.532
520.134
500.644
476.988
452.814
426.329
400.368
373.366
347.109
320.544
295.061
270.177
246.814
224.589
204.106
185.198
168.279
153.415
140.951
131.051
123.77
118.817
115.506
113.098
110.789
108.209
105.018
101.49
97.6342
94.1064
90.888
88.6139
87.025
86.5447
86.9315
88.3539
91.5841
95.9655
41.7195
47.5973
55.612
64.9196
73.3672
78.8112
80.5151
79.2178
76.127
72.3699
68.6824
65.4997
63.068
61.5328
60.811
60.644
60.848
61.4133
62.2888
63.3943
64.6231
65.9555
67.351
68.8622
70.4593
72.2372
74.1334
76.2981
78.6008
81.2771
84.0873
87.4133
90.8205
94.9506
99.0577
104.24
109.216
115.823
122.048
131.061
139.961
153.807
168.182
189.475
210.852
239.265
265.686
301.042
331.851
378.992
435.776
585.169
1073.63
1090.19
988.636
935.284
856.844
768.071
676.044
613.542
571.996
548.498
528.021
508.721
485.353
461.3
434.85
408.753
381.551
354.989
328.086
302.212
276.926
253.141
230.491
209.573
190.227
172.86
157.522
144.531
134.036
126.138
120.645
116.977
114.435
112.189
109.794
106.831
103.497
99.7567
96.2495
92.9556
90.5612
88.8045
88.199
88.4296
89.8012
92.8469
97.2611
41.8117
47.7851
55.8907
65.2523
73.6936
79.0889
80.7362
79.4106
76.3328
72.626
69.0093
65.8938
63.4978
61.9497
61.1782
60.9495
61.0881
61.5885
62.4077
63.4696
64.6666
65.9746
67.3512
68.8459
70.4292
72.1942
74.0799
76.2345
78.5296
81.1983
84.0039
87.325
90.7313
94.8595
98.97
104.153
109.137
115.745
121.983
130.986
139.872
153.632
167.902
188.97
210.17
238.327
264.818
300.357
332.008
379.65
436.081
585.165
1075.93
1094.79
997.163
947.532
871.637
783.587
689.66
624.69
581.025
556.513
535.802
516.604
493.48
469.54
443.131
416.916
389.539
362.698
335.485
309.245
283.581
259.397
236.346
215.015
195.254
177.461
161.676
148.188
137.13
128.625
122.563
118.473
115.718
113.473
111.227
108.489
105.372
101.793
98.3583
95.0426
92.5679
90.6725
89.9529
90.0318
91.3472
94.2042
98.6365
41.9067
47.9783
56.1773
65.595
74.0317
79.38
80.9728
79.6212
76.5596
72.9069
69.3656
66.323
63.9683
62.4105
61.5885
61.294
61.3623
61.7925
62.5498
63.5631
64.724
66.0045
67.3595
68.8358
70.4038
72.1547
74.0288
76.1724
78.4594
81.1201
83.921
87.2372
90.6429
94.7694
98.8842
104.068
109.062
115.674
121.926
130.922
139.797
153.476
167.645
188.493
209.522
237.429
263.993
299.711
332.2
380.386
436.488
585.126
1078.1
1099.7
1006.06
959.967
886.671
799.526
703.837
636.338
590.344
564.611
543.497
524.304
501.373
477.53
451.166
424.85
397.321
370.226
342.73
316.149
290.132
265.572
242.145
220.425
200.271
182.074
165.866
151.913
140.324
131.231
124.586
120.02
116.979
114.663
112.516
109.987
107.098
103.717
100.402
97.1186
94.6074
92.6088
91.7924
91.7296
92.9854
95.6523
100.087
42.0048
48.1771
56.4718
65.9479
74.3818
79.6852
81.2256
79.8506
76.8083
73.2137
69.7527
66.7886
64.4812
62.9181
62.0454
61.6813
61.6742
62.0285
62.7181
63.6772
64.7973
66.0466
67.3773
68.8329
70.3838
72.1191
73.9805
76.1122
78.3904
81.0426
83.8387
87.1497
90.5552
94.6803
98.8002
103.986
108.992
115.608
121.878
130.868
139.737
153.339
167.412
188.047
208.91
236.58
263.22
299.121
332.44
381.212
437.013
585.064
1080.12
1104.95
1015.33
972.572
901.902
815.842
718.56
648.506
599.991
572.827
551.134
531.839
509.041
485.271
458.952
432.549
404.888
377.566
349.813
322.918
296.571
271.66
247.878
225.792
205.268
186.691
170.085
155.697
143.61
133.955
126.725
121.644
118.248
115.787
113.681
111.329
108.668
105.509
102.356
99.1556
96.6536
94.5921
93.7011
93.5118
94.7075
97.1858
101.605
42.1059
48.3816
56.7746
66.3114
74.7444
80.005
81.4954
80.0997
77.0801
73.5475
70.1718
67.2921
65.0384
63.475
62.5523
62.1154
62.0277
62.3004
62.9158
63.8146
64.8888
66.1028
67.4059
68.8382
70.37
72.088
73.9355
76.0542
78.3229
80.9659
83.7569
87.0627
90.4681
94.5922
98.718
103.907
108.925
115.547
121.838
130.826
139.692
153.222
167.204
187.634
208.339
235.787
262.512
298.603
332.743
382.137
437.672
584.992
1082.02
1110.56
1025.01
985.333
917.285
832.485
733.808
661.208
610.003
581.201
558.742
539.229
516.493
492.769
466.488
440.008
412.236
384.71
356.726
329.542
302.891
277.651
253.539
231.111
210.24
191.306
174.326
159.53
146.979
136.792
128.988
123.367
119.557
116.876
114.746
112.529
110.082
107.16
104.201
101.13
98.6826
96.601
95.662
95.3659
96.5037
98.7979
103.185
42.2103
48.5921
57.0859
66.6857
75.12
80.3401
81.7831
80.3697
77.3761
73.9097
70.6242
67.835
65.6418
64.0837
63.1128
62.6002
62.4271
62.612
63.1465
63.9785
65.001
66.175
67.4468
68.8529
70.3632
72.0621
73.8941
75.9987
78.2569
80.8902
83.6757
86.9761
90.3816
94.5049
98.6374
103.83
108.863
115.493
121.806
130.795
139.663
153.126
167.023
187.258
207.814
235.059
261.881
298.175
333.127
383.176
438.485
584.924
1083.8
1116.54
1035.1
998.238
932.775
849.4
749.552
674.454
620.414
589.774
566.356
546.497
523.743
500.03
473.775
447.225
419.358
391.652
363.464
336.016
309.086
283.541
259.122
236.374
215.181
195.913
178.584
163.408
150.425
139.738
131.379
125.206
120.935
117.966
115.742
113.608
111.349
108.667
105.925
103.025
100.675
98.6161
97.6584
97.2787
98.3635
100.481
104.818
42.318
48.8087
57.406
67.0713
75.509
80.6911
82.0894
80.6613
77.6973
74.3013
71.1112
68.4186
66.2931
64.7468
63.7303
63.14
62.8767
62.9678
63.4143
64.1723
65.1368
66.2655
67.5018
68.8784
70.3646
72.0422
73.8571
75.946
78.1929
80.8156
83.5952
86.8898
90.2956
94.4184
98.5584
103.755
108.804
115.444
121.783
130.775
139.649
153.051
166.871
186.92
207.34
234.403
261.338
297.856
333.613
384.346
439.474
584.878
1085.45
1122.91
1045.62
1011.28
948.332
866.531
765.757
688.243
631.256
598.585
574.011
553.672
530.811
507.063
480.817
454.2
426.251
398.388
370.02
342.335
315.15
289.324
264.622
241.579
220.087
200.508
182.855
167.325
153.94
142.787
133.898
127.174
122.41
119.091
116.704
114.593
112.487
110.035
107.526
104.829
102.615
100.621
99.6756
99.238
100.277
102.228
106.499
42.4293
49.0317
57.735
67.4684
75.9119
81.0587
82.4152
80.9757
78.0449
74.7235
71.6339
69.0442
66.9939
65.4667
64.4083
63.7392
63.3812
63.3723
63.7235
64.4
65.2995
66.377
67.573
68.9163
70.3753
72.0291
73.8249
75.8967
78.131
80.7422
83.5154
86.804
90.2102
94.3327
98.4808
103.683
108.75
115.401
121.768
130.767
139.652
152.998
166.748
186.623
206.919
233.828
260.896
297.668
334.222
385.663
440.66
584.874
1087
1129.69
1056.58
1024.45
963.916
883.821
782.381
702.571
642.558
607.678
581.748
560.784
537.716
513.884
487.621
460.934
432.916
404.915
376.389
348.495
321.079
294.998
270.036
246.723
224.955
205.091
187.136
171.278
157.521
145.933
136.543
129.279
124.003
120.284
117.667
115.517
113.519
111.279
109.008
106.539
104.495
102.606
101.702
101.233
102.235
104.031
108.221
42.5441
49.2612
58.0732
67.8774
76.3292
81.4434
82.7613
81.3138
78.4199
75.1775
72.1935
69.7133
67.7458
66.2454
65.15
64.402
63.9455
63.8307
64.079
64.6657
65.4925
66.5124
67.6627
68.9683
70.3967
72.0239
73.7984
75.8512
78.0717
80.6702
83.4365
86.7186
90.1251
94.2475
98.4046
103.613
108.699
115.364
121.761
130.771
139.671
152.967
166.656
186.37
206.558
233.343
260.57
297.633
334.978
387.151
442.068
584.932
1088.43
1136.88
1068
1037.75
979.492
901.215
799.378
717.425
654.344
617.093
589.607
567.869
544.485
520.507
494.197
467.433
439.351
411.231
382.57
354.492
326.872
300.559
275.362
251.803
229.786
209.659
191.427
175.264
161.162
149.172
139.311
131.527
125.731
121.574
118.669
116.416
114.478
112.422
110.385
108.16
106.314
104.563
103.731
103.256
104.231
105.884
109.981
42.6627
49.4974
58.4209
68.2987
76.7612
81.846
83.1287
81.6766
78.8235
75.6645
72.7914
70.4269
68.5501
67.0851
65.9586
65.1325
64.5744
64.3479
64.4858
64.9742
65.72
66.675
67.7735
69.0366
70.4303
72.0277
73.7783
75.8101
78.0153
80.6
83.3586
86.6335
90.0405
94.1627
98.3296
103.545
108.652
115.332
121.763
130.786
139.707
152.96
166.595
186.163
206.26
232.957
260.373
297.773
335.91
388.831
443.723
585.078
1089.77
1144.5
1079.88
1051.19
995.03
918.657
816.699
732.784
666.631
626.87
597.633
574.964
551.146
526.956
500.557
473.705
445.56
417.336
388.561
360.326
332.526
306.008
280.602
256.823
234.58
214.215
195.727
179.284
164.862
152.498
142.198
133.917
127.607
122.986
119.744
117.329
115.398
113.491
111.676
109.703
108.078
106.494
105.759
105.304
106.262
107.784
111.775
42.7853
49.7407
58.7784
68.7324
77.2086
82.2671
83.5181
82.0651
79.2568
76.1856
73.4285
71.1863
69.4083
67.9875
66.8369
65.9349
65.2728
64.9295
64.9492
65.3307
65.9865
66.8685
67.9085
69.1235
70.478
72.042
73.7658
75.7742
77.9622
80.5317
83.2817
86.5489
89.9561
94.0784
98.2555
103.479
108.609
115.305
121.772
130.812
139.759
152.976
166.567
186.005
206.03
232.679
260.321
298.114
337.045
390.732
445.653
585.337
1091.03
1152.55
1092.24
1064.76
1010.5
936.097
834.288
748.621
679.432
637.046
605.87
582.111
557.732
533.252
506.719
479.758
451.548
423.233
394.364
365.996
338.042
311.344
285.756
261.783
239.341
218.761
200.04
183.337
168.618
155.909
145.2
136.45
129.637
124.541
120.924
118.292
116.316
114.52
112.909
111.19
109.799
108.406
107.791
107.376
108.326
109.73
113.605
42.9119
49.9912
59.1458
69.179
77.6716
82.7073
83.9304
82.4805
79.7208
76.7418
74.1061
71.9925
70.3213
68.9542
67.7873
66.8129
66.0456
65.5808
65.4751
65.7404
66.2968
67.0971
68.071
69.2317
70.5419
72.0682
73.762
75.7443
77.913
80.4657
83.2061
86.4648
89.872
93.9942
98.1823
103.415
108.568
115.283
121.789
130.85
139.827
153.016
166.572
185.898
205.873
232.517
260.426
298.678
338.413
392.882
447.888
585.74
1092.2
1161.04
1105.09
1078.48
1025.9
953.486
852.093
764.903
692.752
647.653
614.362
589.354
564.279
539.425
512.701
485.607
457.323
428.927
399.981
371.505
343.422
316.572
290.827
266.687
244.071
223.301
204.368
187.425
172.431
159.4
148.312
139.122
131.827
126.254
122.236
119.343
117.274
115.547
114.118
112.645
111.498
110.312
109.834
109.477
110.427
111.722
115.473
43.0428
50.249
59.5235
69.6388
78.1509
83.1674
84.3665
82.9236
80.2167
77.3344
74.8251
72.8465
71.2903
69.9864
68.8121
67.7701
66.8973
66.3073
66.0692
66.2093
66.6563
67.3655
68.2649
69.3642
70.6243
72.1082
73.7681
75.7212
77.8685
80.4024
83.1319
86.3811
89.7882
93.91
98.1096
103.351
108.53
115.266
121.814
130.899
139.911
153.079
166.611
185.843
205.792
232.481
260.705
299.492
340.047
395.313
450.456
586.319
1093.3
1169.95
1118.43
1092.35
1041.19
970.781
870.057
781.592
706.591
658.722
623.155
596.737
570.827
545.507
518.528
491.268
462.896
434.424
405.416
376.853
348.669
321.695
295.822
271.543
248.778
227.84
208.715
191.551
176.3
162.97
151.53
141.928
134.175
128.135
123.703
120.515
118.311
116.613
115.34
114.102
113.2
112.231
111.903
111.616
112.572
113.767
117.384
43.1781
50.5146
59.9116
70.1121
78.6469
83.648
84.8272
83.3954
80.7456
77.9643
75.5865
73.7493
72.316
71.0852
69.913
68.8093
67.8324
67.1143
66.7374