/*--------------------------------*- C++ -*----------------------------------*\
| =========                 |                                                 |
| \\      /  F ield         | OpenFOAM: The Open Source CFD Toolbox           |
|  \\    /   O peration     | Version:  2412                                  |
|   \\  /    A nd           | Website:  www.openfoam.com                      |
|    \\/     M anipulation  |                                                 |
\*---------------------------------------------------------------------------*/
FoamFile
{
    version     2.0;
    format      ascii;
    arch        "LSB;label=32;scalar=64";
    class       volScalarField;
    location    "0.6";
    object      nut;
}
// * * * * * * * * * * * * * * * * * * * * * * * * * * * * * * * * * * * * * //

dimensions      [0 2 -1 0 0 0 0];

internalField   nonuniform List<scalar> 
13077
(
0.34755
0.366849
0.388698
0.405176
0.409343
0.398699
0.375514
0.344851
0.312362
0.282711
0.259346
0.24526
0.243304
0.255071
0.278133
0.305008
0.327429
0.342157
0.350604
0.355442
0.358529
0.360955
0.363086
0.365196
0.367198
0.36926
0.371141
0.373101
0.37475
0.376512
0.377804
0.379323
0.380201
0.381588
0.382168
0.383611
0.383805
0.385264
0.385538
0.347711
0.367119
0.38895
0.405309
0.409323
0.398538
0.375255
0.344541
0.31202
0.282313
0.258827
0.244522
0.242234
0.253576
0.276202
0.302797
0.325191
0.340055
0.34868
0.353679
0.356904
0.359445
0.361679
0.363876
0.365954
0.368072
0.369995
0.371973
0.373625
0.375363
0.376616
0.378065
0.378863
0.380134
0.380596
0.381877
0.381916
0.383154
0.383223
0.385753
0.38717
0.390129
0.389599
0.386133
0.375583
0.356621
0.331413
0.309761
0.304897
0.331642
0.365944
0.403527
0.459408
0.425767
0.315948
0.228537
0.179612
0.144922
0.121753
0.101639
0.0855425
0.0712585
0.0604115
0.051769
0.0456494
0.0408423
0.0374688
0.0347515
0.0330061
0.347874
0.367393
0.389205
0.405443
0.409302
0.398376
0.374993
0.34423
0.311676
0.281912
0.258302
0.243768
0.241129
0.252013
0.274164
0.300444
0.322789
0.337786
0.346597
0.351767
0.355141
0.357808
0.360155
0.362448
0.364609
0.366792
0.368764
0.370766
0.372424
0.37414
0.375354
0.376733
0.377448
0.3786
0.378939
0.380053
0.37993
0.380939
0.380795
0.38301
0.384165
0.38672
0.385863
0.381834
0.37085
0.351204
0.325584
0.303114
0.297518
0.323493
0.358364
0.398152
0.456931
0.422688
0.311269
0.223803
0.175568
0.141672
0.119223
0.0997422
0.0840978
0.0701796
0.0595023
0.0509637
0.0448088
0.0399748
0.0364985
0.0337019
0.0317961
0.0304231
0.0298846
0.0299593
0.0310618
0.0332488
0.0373176
0.0435173
0.0521619
0.0622384
0.0726545
0.0820122
0.0898704
0.0963089
0.101983
0.107821
0.114388
0.12241
0.131547
0.142067
0.152758
0.164094
0.174316
0.184681
0.19282
0.201177
0.206178
0.211569
0.21157
0.211383
0.201601
0.348042
0.367671
0.389464
0.405579
0.409281
0.398211
0.374728
0.343913
0.311327
0.281506
0.257769
0.242996
0.239986
0.250381
0.272017
0.297942
0.320216
0.335341
0.344344
0.349697
0.35323
0.356035
0.358505
0.360903
0.363158
0.365413
0.367441
0.369472
0.371142
0.372838
0.374015
0.375323
0.375954
0.376983
0.377195
0.378134
0.377845
0.378615
0.378252
0.380139
0.381023
0.383162
0.381971
0.377373
0.365957
0.345641
0.319639
0.29639
0.290066
0.315195
0.350561
0.392553
0.454275
0.419346
0.306378
0.21897
0.171469
0.138391
0.116685
0.0978671
0.0827066
0.0691801
0.0587051
0.0502961
0.0441391
0.0392997
0.0357479
0.0328908
0.030854
0.0293327
0.0285538
0.0283355
0.0289977
0.0305833
0.0337728
0.0388737
0.0463147
0.055357
0.0650462
0.074011
0.0816836
0.0879995
0.0934959
0.0990326
0.105192
0.112741
0.121451
0.131645
0.142192
0.153537
0.163932
0.174551
0.183019
0.191701
0.197039
0.202764
0.203147
0.203559
0.194435
0.348212
0.367954
0.389726
0.405716
0.409258
0.398042
0.374458
0.343592
0.310973
0.281095
0.257226
0.242204
0.238804
0.248678
0.269757
0.295287
0.317464
0.33271
0.341912
0.347458
0.351163
0.354116
0.35672
0.359235
0.361592
0.363928
0.36602
0.368087
0.369773
0.371453
0.372594
0.373831
0.374377
0.37528
0.375361
0.37612
0.375658
0.376181
0.37559
0.377139
0.377743
0.379453
0.377921
0.372748
0.360905
0.339937
0.313585
0.289602
0.282559
0.306769
0.342548
0.386732
0.451435
0.415737
0.301285
0.214053
0.167329
0.13509
0.114143
0.0960112
0.081362
0.068248
0.0580021
0.0497434
0.0436116
0.0387846
0.03518
0.0322784
0.0301358
0.0284925
0.0275112
0.0270449
0.0273362
0.0284145
0.0308458
0.0349575
0.0412522
0.049243
0.0581385
0.0666322
0.0740581
0.0802165
0.085521
0.0907486
0.0964833
0.103518
0.111734
0.12151
0.131813
0.143065
0.15355
0.164357
0.173111
0.182087
0.187752
0.193803
0.194578
0.195588
0.187143
0.348386
0.368241
0.389991
0.405853
0.409232
0.397869
0.374181
0.343264
0.310613
0.280676
0.256672
0.241393
0.237581
0.2469
0.26738
0.292474
0.314525
0.329884
0.339289
0.345038
0.348927
0.352041
0.354791
0.357433
0.359904
0.36233
0.364495
0.366605
0.368313
0.36998
0.371088
0.372254
0.372714
0.373488
0.373434
0.374007
0.373366
0.373635
0.372809
0.374008
0.374322
0.375592
0.373713
0.367961
0.355698
0.334096
0.307428
0.282759
0.275013
0.298236
0.334339
0.380691
0.448403
0.411856
0.295997
0.209069
0.163162
0.131776
0.1116
0.0941726
0.0800574
0.0673728
0.057378
0.0492859
0.0432019
0.0384016
0.0347634
0.0318305
0.0296036
0.0278603
0.0267099
0.0260346
0.026015
0.0266692
0.0284572
0.0316984
0.0369287
0.0438805
0.0519383
0.0598954
0.0670188
0.0729873
0.0780889
0.0830069
0.088311
0.0948036
0.10247
0.111744
0.121704
0.132761
0.143247
0.154164
0.163154
0.172386
0.178363
0.184727
0.185896
0.187497
0.179748
0.348563
0.368533
0.39026
0.405991
0.409204
0.397691
0.373898
0.342929
0.310246
0.280249
0.256107
0.240559
0.236315
0.245046
0.264884
0.289497
0.311392
0.326852
0.336465
0.342428
0.346513
0.349799
0.352708
0.355488
0.358084
0.360612
0.362858
0.36502
0.366756
0.368414
0.369493
0.370588
0.370961
0.371603
0.371411
0.371792
0.370967
0.370973
0.369905
0.370745
0.37076
0.371579
0.369347
0.363013
0.350336
0.328124
0.301176
0.275873
0.267445
0.289617
0.325949
0.374431
0.445176
0.407699
0.290524
0.204033
0.158982
0.12846
0.10906
0.0923497
0.0787867
0.066545
0.0568192
0.048907
0.0428891
0.0381274
0.0344713
0.031518
0.0292247
0.0274001
0.026109
0.0252584
0.0249789
0.0252807
0.0265298
0.0290193
0.0332845
0.0392361
0.0464356
0.0538048
0.0605766
0.0663258
0.0712172
0.0758317
0.08071
0.0866483
0.0937236
0.102423
0.111947
0.122705
0.133097
0.144041
0.153208
0.162649
0.168916
0.175574
0.177138
0.179317
0.172274
0.348744
0.36883
0.390531
0.406129
0.409173
0.397507
0.373608
0.342587
0.309871
0.279814
0.255528
0.239702
0.235005
0.243114
0.262265
0.286351
0.308056
0.323605
0.333427
0.339615
0.343909
0.347381
0.35046
0.353392
0.356125
0.358764
0.361103
0.363324
0.365096
0.366751
0.367803
0.368829
0.369115
0.369623
0.36929
0.369473
0.368459
0.368195
0.366879
0.367348
0.367056
0.367414
0.364824
0.357906
0.344826
0.322026
0.294838
0.268957
0.259872
0.280934
0.317395
0.367955
0.441748
0.403262
0.284878
0.198963
0.154805
0.125152
0.106527
0.0905411
0.0775446
0.0657561
0.0563138
0.048592
0.0426555
0.0379419
0.0342812
0.0313166
0.0289718
0.0270814
0.0256739
0.0246763
0.0241798
0.0241897
0.0249914
0.0268427
0.0302512
0.035263
0.0416061
0.0483515
0.0547303
0.0602345
0.0649111
0.0692338
0.0737013
0.079087
0.0855463
0.0936127
0.102617
0.112975
0.123176
0.134057
0.143334
0.152932
0.159461
0.166389
0.168342
0.171079
0.164751
0.348929
0.369131
0.390804
0.406266
0.409138
0.397316
0.373311
0.342236
0.309488
0.279368
0.254935
0.23882
0.233649
0.241101
0.259521
0.283033
0.304511
0.320133
0.330167
0.336588
0.341103
0.344774
0.348038
0.351133
0.354016
0.356779
0.359221
0.361511
0.363327
0.364985
0.366015
0.366974
0.367173
0.367545
0.367068
0.367048
0.36584
0.365299
0.363728
0.363818
0.36321
0.363097
0.360146
0.352644
0.339169
0.315809
0.28842
0.26202
0.252309
0.272211
0.308695
0.361268
0.438113
0.398542
0.279073
0.193877
0.150646
0.121861
0.104004
0.0887461
0.0763264
0.0649986
0.0558517
0.0483286
0.0424859
0.0378286
0.034174
0.0312058
0.0288219
0.0268787
0.0253751
0.0242545
0.0235771
0.0233454
0.0237779
0.0250943
0.0277566
0.031905
0.0374142
0.0435153
0.0494684
0.0547053
0.059165
0.0632122
0.0672922
0.0721408
0.0779761
0.0853688
0.093783
0.103648
0.113561
0.124285
0.1336
0.143293
0.15005
0.157217
0.15955
0.162819
0.157206
0.349117
0.369436
0.39108
0.406402
0.409099
0.397119
0.373004
0.341876
0.309095
0.278912
0.254327
0.237912
0.232246
0.239008
0.256651
0.279539
0.300752
0.316429
0.326673
0.333336
0.338085
0.341967
0.345429
0.348702
0.351748
0.354648
0.357206
0.359575
0.361443
0.363111
0.364124
0.365017
0.365132
0.365366
0.364743
0.364516
0.363109
0.362284
0.360452
0.360154
0.359224
0.358631
0.355313
0.34723
0.333372
0.30948
0.281932
0.255074
0.244774
0.263471
0.299869
0.354374
0.434267
0.393539
0.27312
0.188791
0.14652
0.118599
0.101497
0.0869643
0.0751276
0.064266
0.0554237
0.048106
0.0423676
0.0377732
0.034134
0.0311685
0.0287558
0.0267705
0.0251881
0.0239648
0.0231363
0.0227045
0.0228334
0.0237058
0.0257288
0.0291
0.033815
0.0392668
0.0447701
0.0497213
0.0539636
0.0577545
0.0614771
0.0658165
0.0710364
0.0777332
0.0855022
0.0947916
0.104323
0.114795
0.124069
0.133792
0.140736
0.148107
0.150803
0.15457
0.149672
0.349309
0.369746
0.391359
0.406537
0.409055
0.396914
0.372689
0.341507
0.308692
0.278444
0.253703
0.236977
0.230795
0.236832
0.253654
0.275868
0.296775
0.312484
0.322936
0.329848
0.334842
0.338949
0.342623
0.346087
0.349312
0.352361
0.355048
0.357507
0.359439
0.361123
0.362125
0.362957
0.362988
0.363083
0.362312
0.361874
0.360265
0.359149
0.357051
0.356357
0.355097
0.354017
0.350331
0.341668
0.327441
0.303046
0.275382
0.248131
0.23728
0.254737
0.290937
0.347281
0.430206
0.388252
0.267038
0.183724
0.142441
0.115376
0.0990106
0.0851956
0.0739447
0.0635522
0.0550221
0.0479151
0.0422898
0.0377641
0.0341479
0.0311905
0.0287577
0.0267394
0.0250924
0.0237835
0.0228289
0.022231
0.0221104
0.0226169
0.0240994
0.0267838
0.0307578
0.0355691
0.0406075
0.0452583
0.0492838
0.0528389
0.0562386
0.0601068
0.0647353
0.0707334
0.0778201
0.0864657
0.0955307
0.105657
0.11481
0.12449
0.131575
0.139107
0.142147
0.146373
0.142181
0.349505
0.370061
0.391638
0.40667
0.409005
0.396701
0.372364
0.341127
0.308277
0.277962
0.25306
0.236014
0.229295
0.234575
0.25053
0.27202
0.292575
0.308292
0.318946
0.326114
0.331364
0.33571
0.33961
0.34328
0.346696
0.34991
0.352739
0.355301
0.357307
0.359016
0.360014
0.360788
0.360739
0.360694
0.359774
0.359121
0.357306
0.355895
0.353525
0.352428
0.350832
0.349258
0.345201
0.335964
0.321381
0.296517
0.268779
0.2412
0.229845
0.246033
0.281922
0.339996
0.425927
0.382684
0.26084
0.178692
0.138423
0.112203
0.0965503
0.0834404
0.0727744
0.0628523
0.0546401
0.0477481
0.0422433
0.0377911
0.0342046
0.03126
0.0288144
0.0267706
0.025071
0.023691
0.0226311
0.0218951
0.0215691
0.0217753
0.0228057
0.0248927
0.0281882
0.03238
0.036947
0.0412863
0.0450959
0.0484358
0.0515497
0.0549919
0.0590664
0.0643813
0.0707682
0.0787191
0.0872429
0.0969362
0.105886
0.115449
0.122622
0.130268
0.133627
0.138265
0.134768
0.349705
0.370379
0.39192
0.406801
0.408948
0.396478
0.372027
0.340734
0.30785
0.277467
0.252399
0.235021
0.227747
0.232236
0.247281
0.267994
0.288151
0.303847
0.314695
0.322124
0.327641
0.332237
0.336377
0.340267
0.343892
0.347285
0.35027
0.352949
0.35504
0.356784
0.357785
0.358507
0.35838
0.358197
0.357127
0.356256
0.354232
0.352521
0.349876
0.34837
0.346432
0.344358
0.339929
0.330123
0.3152
0.289901
0.262134
0.234294
0.222481
0.237383
0.272846
0.332527
0.421428
0.376838
0.254547
0.173712
0.134482
0.10909
0.0941221
0.0816999
0.0716142
0.0621617
0.0542716
0.0475981
0.0422201
0.0378458
0.0342948
0.0313672
0.028915
0.026852
0.0251101
0.0236709
0.0225232
0.0216721
0.0211768
0.0211367
0.0217919
0.0233664
0.0260511
0.0296544
0.0337515
0.0377714
0.0413661
0.04451
0.0473751
0.0504412
0.0540095
0.0586735
0.0643627
0.0715872
0.0795093
0.0886905
0.097357
0.106726
0.113931
0.12164
0.125288
0.130287
0.127467
0.349908
0.370702
0.392202
0.406928
0.408884
0.396245
0.371678
0.34033
0.30741
0.276956
0.251717
0.233998
0.226149
0.229817
0.243908
0.263794
0.283503
0.299147
0.310178
0.317868
0.323661
0.32852
0.332915
0.33704
0.340888
0.344475
0.347634
0.350442
0.352632
0.354421
0.355435
0.356109
0.355909
0.355589
0.354369
0.353278
0.351043
0.349027
0.346104
0.344183
0.341899
0.339321
0.33452
0.324153
0.308905
0.283208
0.255455
0.227421
0.215203
0.22881
0.263735
0.324886
0.416705
0.370719
0.248175
0.168798
0.130628
0.106048
0.0917318
0.0799754
0.070462
0.0614766
0.0539116
0.0474594
0.0422137
0.0379211
0.0344107
0.0315036
0.0290502
0.0269737
0.0251979
0.0237099
0.0224889
0.0215418
0.0209065
0.0206644
0.0210096
0.0221493
0.0242924
0.0273459
0.0309819
0.0346779
0.0380581
0.0410228
0.0436745
0.0464159
0.0495329
0.0535921
0.058604
0.0650911
0.0723675
0.0809694
0.0892776
0.0983783
0.105556
0.113273
0.117174
0.12248
0.120314
0.350116
0.371029
0.392484
0.407051
0.408812
0.396
0.371317
0.339911
0.306955
0.276428
0.251014
0.232944
0.224502
0.227321
0.240417
0.259424
0.278634
0.294189
0.305387
0.31334
0.319417
0.32455
0.329212
0.333587
0.337674
0.341472
0.344819
0.347772
0.350076
0.351921
0.352957
0.353591
0.353323
0.352868
0.3515
0.350187
0.347738
0.345416
0.342211
0.339873
0.337239
0.334154
0.32898
0.318062
0.302507
0.276447
0.248753
0.220594
0.208023
0.220337
0.254612
0.317082
0.411759
0.364334
0.241743
0.163966
0.126874
0.103087
0.0893858
0.0782689
0.0693163
0.0607937
0.0535556
0.0473269
0.0422182
0.0380109
0.0345456
0.0316626
0.0292126
0.0271272
0.0253248
0.0237968
0.0225149
0.0214875
0.0207362
0.0203281
0.020418
0.0211919
0.022861
0.0254086
0.0285985
0.0319693
0.0351347
0.0379342
0.0404044
0.0428714
0.0455956
0.0491066
0.0534779
0.0592362
0.0658414
0.0738119
0.0816946
0.0904554
0.0975457
0.105213
0.109329
0.114881
0.113344
0.350327
0.371359
0.392767
0.407169
0.408731
0.395743
0.370941
0.339477
0.306484
0.275882
0.250288
0.231859
0.222808
0.224749
0.236811
0.254889
0.273547
0.288974
0.300321
0.308532
0.314898
0.320316
0.325259
0.329897
0.33424
0.338265
0.341818
0.344932
0.347363
0.349278
0.350347
0.350949
0.350619
0.350032
0.348517
0.346982
0.34432
0.341688
0.3382
0.335441
0.332454
0.328862
0.323317
0.311858
0.296014
0.269629
0.242039
0.21382
0.200953
0.211985
0.245503
0.30913
0.406588
0.357691
0.235273
0.159227
0.12323
0.100214
0.0870904
0.0765827
0.0681761
0.0601104
0.0531998
0.0471963
0.0422289
0.0381101
0.034694
0.0318381
0.0293958
0.0273058
0.025483
0.0239223
0.0225899
0.0214955
0.0206478
0.0201029
0.0199828
0.0204509
0.0217099
0.0237983
0.0265625
0.0296097
0.0325594
0.0352042
0.0375206
0.0397599
0.0421503
0.0451764
0.0489568
0.0540135
0.0599407
0.0672445
0.0746452
0.0830009
0.0899431
0.0975031
0.101792
0.10753
0.106588
0.350543
0.371693
0.393049
0.407281
0.408639
0.395473
0.37055
0.339027
0.305995
0.275316
0.249538
0.230741
0.221067
0.222106
0.233098
0.250198
0.268249
0.283504
0.294976
0.30344
0.310099
0.315809
0.321045
0.325962
0.330576
0.334845
0.338621
0.341913
0.344488
0.346487
0.347601
0.348179
0.347794
0.347079
0.34542
0.343664
0.340788
0.337845
0.334074
0.330893
0.327552
0.323451
0.317538
0.305551
0.289437
0.262767
0.235322
0.207111
0.194005
0.203774
0.236433
0.301043
0.401192
0.350803
0.228782
0.154594
0.119705
0.0974391
0.0848518
0.0749198
0.0670411
0.0594246
0.052841
0.047064
0.0422415
0.0382143
0.0348513
0.0320254
0.0295945
0.0275036
0.0256658
0.0240789
0.0227049
0.0215546
0.0206266
0.0199688
0.0196757
0.0198893
0.0207966
0.0224736
0.0248366
0.0275648
0.0302976
0.0327948
0.0349797
0.0370334
0.0391466
0.0417536
0.0450021
0.0493998
0.0546608
0.0612808
0.0681557
0.0760499
0.0827862
0.0901825
0.0945987
0.100462
0.100078
0.350763
0.372031
0.393329
0.407386
0.408535
0.395187
0.370142
0.338559
0.305488
0.274729
0.248763
0.229591
0.21928
0.219396
0.229284
0.245359
0.262749
0.277786
0.289355
0.29806
0.305014
0.311023
0.316562
0.32177
0.326671
0.331201
0.335219
0.338707
0.341443
0.343539
0.344712
0.345278
0.344845
0.344008
0.342209
0.340232
0.337143
0.333891
0.329837
0.326234
0.322538
0.317931
0.311652
0.299152
0.282787
0.255871
0.228613
0.200475
0.187188
0.195724
0.227428
0.292836
0.395575
0.343681
0.222293
0.150077
0.116305
0.0947682
0.0826764
0.0732834
0.0659113
0.0587347
0.0524766
0.0469268
0.0422525
0.0383198
0.0350132
0.0322203
0.0298042
0.0277158
0.0258678
0.0242602
0.0228522
0.0216555
0.0206607
0.0199092
0.0194736
0.0194759
0.020084
0.0213963
0.0233858
0.0258024
0.0283171
0.0306704
0.0327411
0.0346451
0.0365331
0.0387862
0.0415671
0.0453608
0.0499835
0.0559206
0.0622407
0.0696283
0.0761055
0.0832839
0.0877815
0.0937076
0.0938422
0.350986
0.372371
0.393608
0.407483
0.408418
0.394885
0.369715
0.338072
0.30496
0.27412
0.247961
0.228408
0.217451
0.216624
0.22538
0.240386
0.257059
0.271826
0.28346
0.292393
0.299638
0.305951
0.311803
0.317315
0.322517
0.327325
0.331603
0.335304
0.33822
0.340431
0.341676
0.342241
0.341771
0.340817
0.338883
0.336688
0.333389
0.329828
0.325492
0.321469
0.317419
0.312309
0.305669
0.29267
0.276075
0.248953
0.221924
0.193922
0.180511
0.187852
0.218513
0.284525
0.389736
0.336342
0.215823
0.145684
0.113038
0.0922076
0.08057
0.0716771
0.0647875
0.0580394
0.0521043
0.046782
0.0422588
0.0384233
0.0351765
0.0324193
0.0300212
0.0279384
0.0260843
0.0244609
0.0230255
0.0217903
0.02074
0.019911
0.0193576
0.0191847
0.0195395
0.0205319
0.0221775
0.0242929
0.0265886
0.028799
0.0307674
0.0325511
0.0342599
0.0362209
0.0386001
0.0418526
0.0458789
0.0511511
0.0569029
0.0637511
0.0699226
0.0768336
0.0813663
0.0872965
0.0879047
0.351214
0.372714
0.393883
0.407571
0.408286
0.394565
0.369269
0.337564
0.304411
0.273487
0.247132
0.227194
0.215581
0.213798
0.221396
0.235291
0.251192
0.265636
0.277299
0.28644
0.29397
0.30059
0.30676
0.312587
0.318106
0.323207
0.327764
0.331698
0.334812
0.337154
0.338489
0.339064
0.338568
0.337506
0.335442
0.333034
0.329527
0.32566
0.321045
0.316604
0.312202
0.306595
0.299599
0.286119
0.269314
0.242028
0.215265
0.18746
0.173982
0.180175
0.209713
0.276129
0.383682
0.328802
0.209394
0.141422
0.109905
0.0897619
0.0785383
0.0701049
0.0636707
0.0573383
0.0517223
0.0466275
0.0422578
0.038522
0.0353383
0.0326193
0.0302423
0.0281679
0.0263115
0.0246766
0.0232194
0.0219529
0.0208566
0.0199631
0.0193124
0.0189941
0.0191356
0.0198496
0.0211823
0.0230092
0.0250858
0.0271521
0.0290254
0.0307117
0.0322803
0.0340054
0.0360473
0.0388257
0.0423072
0.0469478
0.0521328
0.058423
0.0642506
0.0708508
0.075373
0.0812515
0.0822858
0.351445
0.373059
0.394154
0.407649
0.408139
0.394226
0.368802
0.337034
0.303837
0.272828
0.246275
0.225947
0.213675
0.210925
0.217343
0.230092
0.245167
0.259232
0.27088
0.280206
0.288012
0.294936
0.30143
0.30758
0.313428
0.31884
0.323694
0.327879
0.331212
0.333704
0.335145
0.335746
0.335235
0.334073
0.331887
0.32927
0.32556
0.32139
0.3165
0.311647
0.306896
0.300798
0.293453
0.279512
0.262518
0.235107
0.208648
0.181098
0.16761
0.172707
0.201051
0.267664
0.377415
0.321082
0.203024
0.137296
0.106911
0.0874344
0.0765864
0.0685709
0.0625628
0.0566312
0.0513295
0.0464615
0.0422473
0.0386137
0.0354959
0.0328178
0.0304647
0.0284015
0.0265461
0.0249036
0.0234297
0.0221377
0.0210036
0.0200567
0.0193253
0.0188865
0.0188488
0.0193223
0.0203731
0.0219267
0.0237855
0.025705
0.0274864
0.0290917
0.0305522
0.0320908
0.0338553
0.0362271
0.0392224
0.0432761
0.0479102
0.0536378
0.0590929
0.0653466
0.0698153
0.0755907
0.0770015
0.351681
0.373406
0.394421
0.407715
0.407974
0.393865
0.368311
0.336479
0.303239
0.272142
0.245389
0.22467
0.211735
0.208012
0.213235
0.224805
0.239002
0.252629
0.264217
0.273699
0.281766
0.288989
0.29581
0.302289
0.308479
0.314215
0.319384
0.323841
0.327413
0.330074
0.331639
0.332281
0.331769
0.330518
0.328218
0.325398
0.321491
0.317024
0.311863
0.306605
0.301511
0.294931
0.287244
0.272861
0.255699
0.228204
0.202085
0.174844
0.1614
0.16546
0.192551
0.259151
0.370941
0.313201
0.196731
0.133311
0.104055
0.0852271
0.0747187
0.0670794
0.0614658
0.0559185
0.0509249
0.0462824
0.0422256
0.0386963
0.0356473
0.0330126
0.0306861
0.0286368
0.0267855
0.0251389
0.0236527
0.0223405
0.0211756
0.0201845
0.0193864
0.0188475
0.0186597
0.0189266
0.0197258
0.0210233
0.0226671
0.0244364
0.0261255
0.0276608
0.0290381
0.0304321
0.0319735
0.0340038
0.0365741
0.0400945
0.0442056
0.0493795
0.0544441
0.0603242
0.0646998
0.0703266
0.0720629
0.35192
0.373754
0.394682
0.407767
0.40779
0.393481
0.367795
0.335899
0.302614
0.271428
0.244473
0.223362
0.209767
0.205069
0.209087
0.219451
0.23272
0.245851
0.257326
0.26693
0.275239
0.282753
0.289898
0.296712
0.303252
0.309327
0.314828
0.319576
0.323408
0.326259
0.327967
0.328666
0.328168
0.326841
0.324436
0.321422
0.317324
0.312567
0.307142
0.301487
0.296054
0.289003
0.280983
0.26618
0.248872
0.221334
0.195586
0.168707
0.155357
0.158447
0.184234
0.250611
0.364268
0.305184
0.190533
0.129468
0.101336
0.0831409
0.0729391
0.0656347
0.0603822
0.0552008
0.050508
0.0460893
0.042191
0.0387682
0.0357906
0.0332017
0.0309046
0.0288716
0.0270274
0.0253797
0.0238852
0.0225576
0.0213678
0.0203405
0.0194872
0.0188654
0.0185518
0.0186424
0.0192188
0.0202789
0.0217127
0.0233283
0.0249223
0.0263935
0.027706
0.0289898
0.0303556
0.0321046
0.034311
0.0373565
0.0409822
0.0456234
0.0502901
0.0557788
0.0600267
0.0654657
0.067476
0.352163
0.374103
0.394935
0.407805
0.407584
0.393073
0.367253
0.335291
0.30196
0.270684
0.243526
0.222027
0.207774
0.202105
0.204915
0.21405
0.226347
0.23892
0.250229
0.259915
0.268441
0.276232
0.283697
0.290846
0.297743
0.304168
0.310019
0.315077
0.319191
0.322252
0.324124
0.3249
0.324432
0.32304
0.320543
0.317343
0.313062
0.308023
0.302342
0.296299
0.290537
0.283027
0.274684
0.259484
0.242051
0.21451
0.189164
0.162694
0.149488
0.151676
0.176122
0.242062
0.357403
0.297055
0.184446
0.125769
0.0987543
0.0811751
0.0712505
0.064241
0.059315
0.0544795
0.0500788
0.0458813
0.0421423
0.0388279
0.0359243
0.0333836
0.0311183
0.0291041
0.0272697
0.025624
0.0241246
0.0227858
0.0215766
0.0205197
0.019621
0.0189304
0.0185118
0.0184523
0.0188332
0.0196753
0.020906
0.0223654
0.0238596
0.0252685
0.0265288
0.0277297
0.02896
0.0304819
0.0323826
0.0350136
0.0381982
0.0423376
0.0466094
0.0516986
0.0557895
0.0610086
0.0632422
0.35241
0.374452
0.39518
0.407826
0.407356
0.392637
0.366682
0.334653
0.301275
0.269909
0.242549
0.220664
0.205762
0.199131
0.200735
0.208627
0.219909
0.231865
0.242948
0.252672
0.261385
0.269436
0.27721
0.284693
0.291951
0.298737
0.304952
0.310339
0.314755
0.318049
0.320107
0.320978
0.320558
0.319117
0.31654
0.313165
0.30871
0.303399
0.297471
0.291053
0.284969
0.277015
0.268359
0.252787
0.235251
0.207746
0.182829
0.156813
0.143796
0.145154
0.168233
0.233528
0.350355
0.28884
0.178486
0.122213
0.096305
0.0793281
0.069655
0.0629023
0.0582674
0.0537561
0.0496375
0.045658
0.0420787
0.0388743
0.0360469
0.0335568
0.0313259
0.0293328
0.0275108
0.0258698
0.0243689
0.0230225
0.0217986
0.0207182
0.0197823
0.0190348
0.0185286
0.0183418
0.0185522
0.0191962
0.0202329
0.0215346
0.0229236
0.0242687
0.0254843
0.026623
0.0277509
0.0290929
0.0307418
0.0330174
0.0358091
0.0394853
0.0433741
0.0480648
0.0519758
0.0569504
0.0593583
0.35266
0.3748
0.395416
0.407828
0.407102
0.392172
0.36608
0.333983
0.300559
0.269102
0.241542
0.219277
0.203737
0.196158
0.196564
0.203204
0.213435
0.224717
0.235512
0.245224
0.254089
0.262376
0.270446
0.278255
0.285876
0.29303
0.299623
0.305356
0.310096
0.313644
0.315912
0.316898
0.316545
0.315071
0.312428
0.308891
0.304273
0.298701
0.292537
0.285756
0.279362
0.270979
0.262024
0.246105
0.228488
0.201057
0.176595
0.151073
0.138286
0.138887
0.160584
0.22503
0.343135
0.280567
0.172665
0.1188
0.0939847
0.077597
0.0681538
0.0616224
0.0572429
0.0530328
0.0491848
0.0454193
0.0419995
0.0389063
0.0361574
0.0337202
0.031526
0.0295563
0.0277492
0.0261156
0.0246162
0.0232656
0.0220312
0.0209326
0.0199666
0.0191722
0.0185931
0.0182986
0.0183613
0.018827
0.0196802
0.0208245
0.0221028
0.0233804
0.0245545
0.0256457
0.0266976
0.0278999
0.0293452
0.0313217
0.0337698
0.0370265
0.040552
0.0448537
0.0485684
0.053281
0.0558167
0.352914
0.375146
0.39564
0.40781
0.406821
0.391676
0.365445
0.33328
0.299808
0.26826
0.240503
0.217867
0.201705
0.193198
0.19242
0.197807
0.206958
0.217508
0.227953
0.237597
0.246573
0.255068
0.263415
0.27154
0.279521
0.287046
0.294028
0.300124
0.305209
0.309034
0.311534
0.312658
0.312393
0.310903
0.30821
0.304524
0.299756
0.293936
0.287546
0.280418
0.273726
0.264933
0.255691
0.239453
0.221775
0.194458
0.170471
0.14548
0.13296
0.13288
0.153192
0.216591
0.335755
0.272263
0.166998
0.115528
0.0917885
0.0759782
0.0667472
0.0604045
0.056245
0.0523119
0.0487217
0.0451653
0.0419042
0.0389234
0.0362549
0.0338727
0.0317175
0.0297736
0.0279838
0.02636
0.0248649
0.0235134
0.0222724
0.02116
0.0201701
0.0193375
0.0186977
0.0183126
0.0182478
0.0185545
0.0192363
0.0202253
0.0213881
0.0225927
0.0237252
0.0247785
0.0257749
0.026871
0.0281549
0.0298838
0.032037
0.0349202
0.038108
0.042037
0.0455455
0.0499857
0.0526065
0.353171
0.375491
0.395851
0.407769
0.40651
0.391147
0.364774
0.332541
0.299021
0.267384
0.239434
0.216437
0.199672
0.190261
0.188322
0.192462
0.200507
0.210275
0.220305
0.229823
0.238864
0.247531
0.256131
0.264557
0.27289
0.280788
0.288167
0.29464
0.30009
0.304215
0.30697
0.308256
0.3081
0.306614
0.303888
0.300068
0.295163
0.28911
0.282509
0.275051
0.268073
0.25889
0.249375
0.232846
0.215128
0.187962
0.164471
0.140042
0.127822
0.127135
0.146069
0.208231
0.328226
0.263957
0.161495
0.112394
0.0897111
0.0744672
0.0654346
0.0592516
0.0552776
0.0515961
0.0482495
0.0448965
0.0417927
0.038925
0.0363386
0.0340134
0.0318996
0.0299836
0.0282134
0.0266019
0.0251137
0.0237643
0.0225201
0.0213983
0.02039
0.0195264
0.0188365
0.0183751
0.0182011
0.0183669
0.0188904
0.0197282
0.0207717
0.0218973
0.0229854
0.0240063
0.0249621
0.025979
0.0271376
0.0286653
0.0305697
0.0331261
0.0360057
0.0395843
0.0428825
0.0470466
0.0497136
0.35343
0.375832
0.396048
0.407704
0.406168
0.390582
0.364067
0.331764
0.298197
0.266473
0.238336
0.214991
0.197645
0.187359
0.184288
0.187192
0.194118
0.203054
0.212605
0.221936
0.230989
0.23979
0.248613
0.257319
0.265992
0.274258
0.28204
0.288904
0.294737
0.299183
0.302219
0.30369
0.303666
0.302206
0.299465
0.295529
0.290502
0.284231
0.277432
0.269662
0.262413
0.252862
0.24309
0.226299
0.208563
0.181583
0.158604
0.134766
0.122874
0.121654
0.139229
0.199974
0.320563
0.255677
0.156165
0.109396
0.0877466
0.0730589
0.0642144
0.0581658
0.0543442
0.0508884
0.0477701
0.0446136
0.0416651
0.0389108
0.036408
0.0341418
0.0320713
0.0301855
0.0284372
0.0268403
0.0253616
0.024017
0.0227731
0.0216456
0.0206237
0.0197355
0.0190045
0.0184793
0.0182118
0.0182538
0.0186325
0.0193251
0.0202471
0.0212877
0.0223268
0.0233171
0.0242427
0.025202
0.0262657
0.0276329
0.0293309
0.0316058
0.0342091
0.0374634
0.0405528
0.0444424
0.0471218
0.353693
0.376168
0.396229
0.407613
0.405791
0.389979
0.363319
0.330947
0.297334
0.265525
0.237208
0.213531
0.19563
0.184505
0.180335
0.182025
0.187821
0.195885
0.204894
0.213973
0.222983
0.231872
0.240881
0.249842
0.258837
0.267466
0.275651
0.282914
0.289147
0.293937
0.297278
0.298959
0.299091
0.297678
0.294943
0.290909
0.285776
0.279306
0.272326
0.264263
0.25676
0.246862
0.236851
0.219827
0.202094
0.175335
0.152882
0.129659
0.118119
0.116436
0.132679
0.191842
0.312781
0.247452
0.151018
0.10653
0.0858893
0.0717478
0.0630844
0.0571487
0.0534485
0.0501921
0.0472854
0.0443177
0.0415216
0.0388807
0.0364626
0.0342571
0.032232
0.0303786
0.0286544
0.0270743
0.0256077
0.0242706
0.02303
0.0219004
0.0208692
0.019962
0.0191976
0.0186192
0.0182722
0.0182061
0.0184537
0.0190084
0.0198087
0.0207587
0.0217433
0.0227022
0.0236042
0.0245222
0.025516
0.0267579
0.028288
0.0303242
0.0326836
0.0356423
0.0385288
0.0421505
0.0448133
0.353958
0.3765
0.396391
0.407492
0.405378
0.389335
0.36253
0.330089
0.296431
0.26454
0.236053
0.212061
0.193634
0.181709
0.176481
0.176984
0.18165
0.188806
0.197214
0.205975
0.214881
0.223808
0.232963
0.242146
0.251442
0.260418
0.269004
0.276673
0.283321
0.288474
0.292145
0.294061
0.294376
0.293034
0.290326
0.286214
0.280993
0.274342
0.267197
0.258864
0.251123
0.240904
0.230669
0.213445
0.195734
0.169232
0.147316
0.124728
0.113559
0.111481
0.126428
0.183855
0.304895
0.23931
0.146059
0.103792
0.0841329
0.0705279
0.0620417
0.0562014
0.0525938
0.0495105
0.0467977
0.0440102
0.0413629
0.0388348
0.0365022
0.034359
0.0323813
0.0305622
0.0288643
0.0273034
0.0258512
0.0245243
0.0232899
0.0221616
0.0211251
0.0202038
0.0194126
0.0187901
0.0183757
0.0182157
0.0183456
0.0187711
0.019451
0.0203063
0.0212303
0.022155
0.0230368
0.0239258
0.02487
0.0260165
0.0274128
0.0292495
0.0313971
0.03409
0.036783
0.0401471
0.0427692
0.354224
0.376824
0.396533
0.407339
0.404925
0.388647
0.361696
0.329186
0.295485
0.263518
0.23487
0.210584
0.191663
0.178982
0.172742
0.172093
0.175636
0.181857
0.189608
0.197986
0.206724
0.215633
0.224888
0.234255
0.243823
0.253129
0.262108
0.270185
0.27726
0.282796
0.28682
0.288997
0.28952
0.288274
0.285616
0.281448
0.276159
0.269347
0.262056
0.253475
0.245515
0.234999
0.22456
0.207167
0.189498
0.163285
0.141916
0.119981
0.109195
0.106788
0.120482
0.176034
0.296923
0.231277
0.141294
0.101178
0.0824715
0.0693934
0.0610827
0.0553241
0.0517832
0.0488472
0.0463096
0.0436926
0.0411897
0.0387733
0.0365268
0.0344472
0.0325185
0.0307359
0.0290663
0.027527
0.0260916
0.0247775
0.0235521
0.0224282
0.02139
0.0204591
0.0196469
0.0189881
0.0185168
0.0182756
0.0183007
0.0186066
0.0191693
0.0199269
0.0207846
0.0216711
0.0225336
0.0234022
0.024313
0.0253892
0.0266816
0.0283545
0.0303206
0.0327773
0.0352888
0.0384083
0.0409706
0.354493
0.37714
0.396653
0.407152
0.404431
0.387914
0.360816
0.328238
0.294496
0.262459
0.233663
0.209105
0.189726
0.176334
0.169134
0.167373
0.169809
0.175075
0.182119
0.190049
0.198554
0.207387
0.216688
0.226197
0.236002
0.245615
0.254973
0.263457
0.270967
0.276903
0.281302
0.283767
0.284525
0.283401
0.280817
0.276616
0.271279
0.264328
0.25691
0.248105
0.239945
0.22916
0.218536
0.201005
0.183399
0.157507
0.136691
0.115422
0.10503
0.102353
0.114844
0.1684
0.28888
0.223378
0.136726
0.0986864
0.0808994
0.0683382
0.0602034
0.0545163
0.0510194
0.0482055
0.045824
0.0433668
0.0410031
0.0386967