/*--------------------------------*- C++ -*----------------------------------*\
| =========                 |                                                 |
| \\      /  F ield         | OpenFOAM: The Open Source CFD Toolbox           |
|  \\    /   O peration     | Version:  2412                                  |
|   \\  /    A nd           | Website:  www.openfoam.com                      |
|    \\/     M anipulation  |                                                 |
\*---------------------------------------------------------------------------*/
FoamFile
{
    version     2.0;
    format      ascii;
    arch        "LSB;label=32;scalar=64";
    class       volScalarField;
    location    "0.6";
    object      p;
}
// * * * * * * * * * * * * * * * * * * * * * * * * * * * * * * * * * * * * * //

dimensions      [0 2 -2 0 0 0 0];

internalField   nonuniform List<scalar> 
13077
(
108161
107994
107880
107614
107433
107129
106904
106615
106402
106159
105977
105765
105593
105371
105175
104899
104659
104321
104047
103637
103332
102831
102496
101874
101513
100728
100350
99340.4
98966.3
97643.5
97310.1
95543.7
95315.8
92911.2
92899.9
89561.4
89952.2
85222.7
86324.9
108180
108010
107895
107626
107444
107137
106910
106620
106405
106162
105979
105767
105596
105375
105179
104904
104664
104326
104052
103642
103337
102837
102501
101880
101519
100735
100356
99348.5
98973.2
97652.9
97317.5
95554.7
95323.9
92924.3
92908.8
89577
89961.8
85241.5
86335.3
79511.6
81824.8
71774.5
76215.4
61240.4
69554.4
47076.2
62362.4
27670.6
54028.6
-2907.24
39526.3
-57418
13490.1
-158491
-11458.8
-75999.8
6436.31
-33500.3
16905.6
-8294.32
23571.9
9229.74
30488.9
23301.9
37505.4
34372
43899.7
43112.9
49659.8
108199
108026
107911
107638
107455
107145
106917
106625
106409
106164
105981
105769
105598
105378
105182
104908
104668
104330
104056
103647
103342
102842
102507
101886
101525
100742
100363
99356.7
98980
97662.4
97325
95565.8
95332
92937.4
92917.7
89592.7
89971.5
85260.4
86345.9
79534.4
81835.8
71801.1
76225.8
61270.8
69565.7
47114
62384.6
27725.4
54076.8
-2833.06
39596.3
-57401.8
13485.9
-159027
-11615.8
-76023.3
6412.58
-33490.5
16896
-8282.16
23569.7
9246.17
30491.6
23317
37508.4
34384.7
43902.8
43123.1
49662.2
50153.7
54753
55809.2
59073.8
60247.1
62553.5
63634.3
65281.2
66235.6
67456.4
68317.7
69279.2
70101.3
70907.6
71729.7
72419.5
73253
73812.8
74660.2
75048.1
75930.9
76093.5
77074.2
76934
78135.1
77554.7
79206
77929
80489.3
78031.8
108218
108043
107926
107651
107466
107154
106924
106630
106412
106167
105983
105771
105600
105381
105186
104912
104672
104335
104061
103652
103347
102848
102512
101893
101530
100749
100369
99364.9
98986.9
97671.9
97332.5
95576.9
95340.2
92950.6
92926.6
89608.6
89981.3
85279.5
86356.5
79557.4
81847
71828.1
76236.6
61301.7
69577.7
47152.5
62407.3
27780.2
54124.9
-2758.74
39667.2
-57384.1
13482.9
-159566
-11773.9
-76046.7
6388.26
-33481.2
16886.1
-8269.86
23567.8
9263.03
30494.8
23332.5
37511.8
34397.7
43906.4
43133.7
49665.1
50161.3
54754.6
55813.9
59073.8
60249
62551.7
63633.5
65277.8
66233
67452.5
68314.6
69275.7
70098.2
70904.5
71726.3
72416.5
73249.1
73810
74655.9
75045.8
75926.3
76092.1
77069
76933.6
78128.9
77555.5
79198
77931.2
80480
78035.1
108237
108059
107942
107663
107477
107162
106931
106635
106416
106170
105985
105773
105602
105384
105190
104917
104677
104340
104065
103658
103352
102854
102517
101899
101536
100756
100375
99373.2
98993.8
97681.5
97340
95588.2
95348.5
92963.9
92935.7
89624.5
89991.2
85298.7
86367.3
79580.6
81858.4
71855.5
76247.9
61333.3
69590.3
47191.6
62430.5
27835.1
54172.9
-2684.32
39739.1
-57364.9
13481.2
-160109
-11933.2
-76069.8
6363.47
-33472.3
16876.1
-8257.39
23566.2
9280.26
30498.2
23348.4
37515.6
34411
43910.2
43144.6
49668.3
50169.2
54756.6
55818.9
59074.3
60251.3
62550.5
63633.2
65275
66230.8
67449.1
68311.9
69272.7
70095.4
70901.9
71723.3
72413.9
73245.5
73807.4
74651.7
75043.6
75921.7
76090.6
77063.8
76933.2
78122.7
77556.3
79190.1
77933.5
80470.9
78038.7
108257
108076
107958
107676
107488
107171
106938
106640
106420
106173
105987
105775
105604
105387
105194
104921
104681
104345
104070
103663
103357
102859
102523
101906
101542
100763
100382
99381.5
99000.8
97691.1
97347.7
95599.4
95356.8
92977.2
92944.8
89640.5
90001.2
85318.1
86378.3
79604.1
81870.1
71883.2
76259.5
61365.3
69603.4
47231.1
62454.1
27890.1
54220.9
-2609.66
39811.9
-57344
13481
-160655
-12093.5
-76092.5
6338.49
-33463.5
16866
-8244.74
23565
9297.78
30502
23364.5
37519.6
34424.6
43914.4
43155.7
49671.8
50177.4
54758.8
55824.3
59075.1
60253.9
62549.6
63633.3
65272.7
66229.3
67446.2
68309.7
69270.1
70093.2
70899.6
71720.7
72411.6
73242.3
73805
74647.8
75041.4
75917.2
76089.1
77058.7
76932.7
78116.5
77557.1
79182.4
77936.1
80461.8
78042.6
108276
108093
107974
107689
107499
107180
106945
106645
106424
106175
105989
105777
105607
105390
105197
104926
104686
104350
104075
103668
103362
102865
102528
101912
101548
100771
100388
99389.9
99007.8
97700.8
97355.4
95610.8
95365.2
92990.7
92954
89656.7
90011.4
85337.7
86389.4
79627.8
81881.9
71911.3
76271.5
61397.8
69616.9
47271.1
62478
27945.1
54268.9
-2534.81
39885.7
-57321.4
13482.1
-161205
-12255.1
-76114.8
6313.41
-33454.8
16855.9
-8231.92
23563.9
9315.55
30506
23380.8
37523.9
34438.4
43918.8
43167
49675.6
50185.8
54761.4
55829.9
59076.2
60256.9
62549.1
63633.9
65270.9
66228.2
67443.9
68308
69268
70091.4
70897.9
71718.6
72409.8
73239.4
73803
74644.1
75039.5
75912.9
76087.8
77053.7
76932.3
78110.4
77558.1
79174.7
77938.8
80452.9
78046.8
108296
108110
107990
107701
107511
107188
106952
106650
106428
106178
105991
105779
105609
105393
105201
104930
104691
104355
104080
103674
103367
102871
102534
101919
101554
100778
100395
99398.4
99014.9
97710.6
97363.1
95622.3
95373.7
93004.3
92963.3
89673
90021.6
85357.4
86400.7
79651.7
81894.1
71939.6
76283.8
61430.7
69630.8
47311.6
62502.2
28000.1
54316.8
-2459.9
39960.4
-57297.1
13484.7
-161759
-12417.7
-76136.5
6288.25
-33446.2
16845.9
-8218.92
23563.1
9333.55
30510.2
23397.3
37528.4
34452.3
43923.4
43178.4
49679.6
50194.4
54764.1
55835.7
59077.6
60260.1
62549
63634.9
65269.5
66227.6
67442
68306.8
69266.4
70090
70896.5
71716.8
72408.3
73236.9
73801.2
74640.7
75037.8
75908.7
76086.5
77048.8
76932
78104.4
77559.1
79167.2
77941.7
80444
78051.2
108316
108127
108006
107714
107522
107197
106959
106655
106431
106181
105994
105781
105611
105396
105205
104935
104695
104360
104085
103679
103372
102877
102539
101925
101560
100786
100401
99406.9
99022.1
97720.5
97371
95633.8
95382.3
93018
92972.8
89689.4
90032
85377.3
86412.1
79675.8
81906.4
71968.3
76296.4
61464.1
69645.2
47352.5
62526.7
28055.2
54364.6
-2385.02
40035.8
-57271.1
13488.7
-162316
-12581.3
-76157.6
6263.09
-33437.6
16835.8
-8205.76
23562.5
9351.77
30514.6
23413.9
37533.1
34466.4
43928.2
43190
49683.8
50203.1
54767.1
55841.6
59079.2
60263.5
62549.2
63636.2
65268.6
66227.5
67440.6
68306
69265.2
70089.1
70895.6
71715.5
72407.3
73234.8
73799.8
74637.7
75036.3
75904.8
76085.4
77044
76931.8
78098.6
77560.2
79159.8
77944.8
80435.2
78055.8
108336
108144
108023
107727
107534
107206
106966
106661
106435
106184
105996
105783
105613
105399
105209
104939
104700
104365
104090
103685
103378
102883
102545
101932
101566
100793
100408
99415.5
99029.4
97730.4
97378.9
95645.5
95391
93031.8
92982.3
89706
90042.5
85397.4
86423.8
79700.2
81919
71997.4
76309.4
61497.9
69660.1
47393.8
62551.5
28110.1
54412.1
-2310.3
40111.9
-57243.5
13494.3
-162878
-12745.9
-76178.1
6237.96
-33429
16825.8
-8192.43
23562.1
9370.17
30519.1
23430.7
37537.9
34480.6
43933.2
43201.7
49688.1
50211.9
54770.3
55847.8
59081
60267.1
62549.6
63637.8
65268
66227.7
67439.7
68305.7
69264.5
70088.6
70895.1
71714.6
72406.6
73233
73798.8
74634.9
75035
75901.1
76084.4
77039.4
76931.6
78092.9
77561.4
79152.6
77948.1
80426.6
78060.8
108357
108162
108039
107740
107545
107215
106973
106666
106439
106187
105998
105785
105615
105402
105212
104944
104705
104370
104095
103690
103383
102889
102551
101939
101573
100801
100415
99424.3
99036.7
97740.4
97386.9
95657.2
95399.7
93045.7
92991.9
89722.7
90053.1
85417.6
86435.5
79724.8
81931.8
72026.7
76322.7
61532.1
69675.3
47435.5
62576.6
28164.9
54459.3
-2235.85
40188.5
-57214.3
13501.4
-163442
-12911.4
-76197.9
6212.92
-33420.4
16815.9
-8178.95
23561.9
9388.76
30523.8
23447.6
37542.8
34494.9
43938.3
43213.5
49692.6
50220.9
54773.6
55854
59083
60270.9
62550.2
63639.5
65267.6
66228.3
67439.1
68305.8
69264.2
70088.6
70895
71714.2
72406.4
73231.6
73798.1
74632.5
75034.1
75897.7
76083.7
77035
76931.6
78087.3
77562.8
79145.5
77951.6
80418.1
78066
108377
108179
108056
107753
107557
107224
106980
106671
106443
106190
106000
105787
105618
105405
105216
104949
104709
104375
104100
103696
103389
102896
102557
101946
101579
100809
100422
99433.1
99044.1
97750.6
97394.9
95669
95408.5
93059.7
93001.6
89739.5
90063.9
85438.1
86447.4
79749.7
81944.8
72056.4
76336.4
61566.8
69691
47477.5
62601.9
28219.6
54506.2
-2161.76
40265.6
-57183.5
13510
-164011
-13077.7
-76216.9
6188.04
-33411.8
16806
-8165.32
23561.8
9407.5
30528.7
23464.7
37547.9
34509.3
43943.4
43225.3
49697.1
50229.9
54777.1
55860.4
59085.2
60274.9
62551
63641.5
65267.6
66229.2
67438.9
68306.3
69264.3
70088.9
70895.3
71714.1
72406.5
73230.7
73797.7
74630.4
75033.4
75894.6
76083.2
77030.9
76931.8
78082
77564.4
79138.7
77955.3
80409.7
78071.5
108398
108197
108072
107766
107568
107233
106988
106677
106447
106192
106002
105789
105620
105408
105220
104953
104714
104381
104105
103702
103394
102902
102563
101953
101585
100817
100429
99441.9
99051.6
97760.8
97403.1
95680.9
95417.4
93073.8
93011.4
89756.5
90074.7
85458.6
86459.5
79774.7
81958.1
72086.4
76350.4
61601.9
69707.1
47520
62627.3
28274.1
54552.6
-2088.16
40343
-57151.2
13520.2
-164583
-13244.8
-76235
6163.35
-33403
16796.1
-8151.53
23561.9
9426.39
30533.6
23481.8
37553
34523.7
43948.7
43237.2
49701.8
50238.9
54780.6
55866.9
59087.5
60278.9
62551.9
63643.6
65267.7
66230.3
67439
68307.1
69264.7
70089.6
70896
71714.3
72406.9
73230
73797.7
74628.7
75033.1
75891.7
76082.9
77026.9
76932.2
78076.9
77566.1
79132.2
77959.3
80401.6
78077.4
108419
108215
108089
107780
107580
107242
106995
106682
106451
106195
106004
105791
105622
105411
105224
104958
104719
104386
104111
103707
103400
102908
102569
101960
101592
100824
100436
99450.9
99059.2
97771.1
97411.3
95692.9
95426.4
93088
93021.3
89773.6
90085.7
85479.4
86471.8
79800
81971.5
72116.7
76364.7
61637.4
69723.6
47562.7
62653
28328.3
54598.6
-2015.15
40420.6
-57117.4
13532
-165160
-13412.5
-76252.2
6138.9
-33394.1
16786.4
-8137.59
23562.2
9445.42
30538.6
23499
37558.3
34538.2
43954.1
43249.2
49706.6
50248
54784.3
55873.4
59089.9
60283.1
62553.1
63645.9
65268.1
66231.7
67439.4
68308.2
69265.5
70090.6
70897
71714.9
72407.7
73229.7
73798
74627.3
75033
75889.2
76082.9
77023.3
76932.8
78072.1
77568.1
79125.9
77963.5
80393.7
78083.6
108441
108233
108106
107793
107592
107251
107002
106688
106455
106198
106006
105793
105624
105414
105227
104963
104724
104391
104116
103713
103406
102915
102575
101967
101599
100832
100443
99460
99066.9
97781.5
97419.6
95705.1
95435.5
93102.4
93031.3
89790.8
90096.8
85500.3
86484.2
79825.5
81985.2
72147.3
76379.3
61673.3
69740.5
47605.8
62678.8
28382.3
54644.1
-1942.83
40498.4
-57082.3
13545.4
-165740
-13580.8
-76268.5
6114.75
-33385.1
16776.8
-8123.5
23562.7
9464.57
30543.7
23516.2
37563.6
34552.8
43959.5
43261.2
49711.4
50257.2
54788.1
55880
59092.5
60287.3
62554.3
63648.2
65268.6
66233.2
67440
68309.6
69266.5
70091.9
70898.2
71715.8
72408.8
73229.7
73798.7
74626.2
75033.3
75887
76083.1
77020
76933.6
78067.5
77570.2
79119.8
77968.1
80386.1
78090.1
108462
108251
108124
107807
107604
107260
107010
106693
106459
106201
106009
105795
105626
105416
105231
104967
104729
104397
104121
103719
103411
102921
102581
101974
101605
100841
100450
99469.2
99074.6
97792
97428.1
95717.3
95444.7
93116.8
93041.4
89808.1
90108
85521.3
86496.7
79851.2
81999.1
72178.2
76394.2
61709.5
69757.7
47649.2
62704.7
28436
54689.1
-1871.31
40576.1
-57045.8
13560.4
-166323
-13749.6
-76283.8
6090.92
-33375.9
16767.3
-8109.27
23563.3
9483.84
30548.9
23533.6
37569
34567.4
43965
43273.2
49716.3
50266.4
54791.9
55886.7
59095.2
60291.6
62555.7
63650.7
65269.2
66234.8
67440.8
68311.2
69267.8
70093.5
70899.8
71716.9
72410.1
73230
73799.6
74625.4
75033.8
75885.1
76083.6
77016.9
76934.6
78063.2
77572.6
79114.1
77972.8
80378.7
78097
108484
108269
108141
107820
107616
107270
107017
106699
106463
106204
106011
105797
105628
105419
105235
104972
104734
104402
104127
103725
103417
102928
102588
101982
101612
100849
100457
99478.4
99082.5
97802.6
97436.6
95729.6
95454
93131.4
93051.7
89825.6
90119.4
85542.5
86509.4
79877
82013.2
72209.4
76409.5
61746.2
69775.3
47692.8
62730.8
28489.3
54733.4
-1800.67
40653.6
-57008.1
13577
-166911
-13918.8
-76298
6067.46
-33366.5
16758
-8094.88
23564
9503.22
30554.2
23550.9
37574.4
34582
43970.6
43285.2
49721.3
50275.6
54795.8
55893.4
59097.9
60296
62557.1
63653.3
65270
66236.6
67441.7
68312.9
69269.3
70095.3
70901.5
71718.3
72411.7
73230.6
73800.7
74624.9
75034.6
75883.6
76084.4
77014.2
76935.9
78059.2
77575.3
79108.7
77977.9
80371.6
78104.2
108506
108287
108158
107834
107628
107279
107024
106704
106467
106207
106013
105799
105630
105422
105238
104977
104739
104408
104132
103732
103423
102935
102594
101989
101619
100857
100465
99487.8
99090.4
97813.3
97445.2
95742
95463.4
93146
93062
89843.2
90130.8
85563.9
86522.2
79903.1
82027.5
72240.8
76425
61783.2
69793.3
47736.6
62756.9
28542.3
54777.1
-1731.01
40730.9
-56969.3
13595.1
-167503
-14088.3
-76311.1
6044.4
-33356.9
16748.9
-8080.34
23564.9
9522.7
30559.6
23568.4
37579.9
34596.6
43976.2
43297.3
49726.3
50284.8
54799.8
55900.1
59100.7
60300.5
62558.7
63655.9
65270.8
66238.5
67442.8
68314.9
69270.9
70097.3
70903.5
71719.9
72413.5
73231.4
73802.1
74624.7
75035.7
75882.2
76085.5
77011.7
76937.5
78055.5
77578.2
79103.6
77983.3
80364.8
78111.8
108528
108306
108176
107847
107640
107288
107032
106710
106471
106210
106015
105801
105632
105425
105242
104981
104744
104413
104138
103738
103429
102942
102601
101997
101626
100866
100472
99497.3
99098.5
97824.1
97453.8
95754.5
95472.8
93160.8
93072.4
89860.9
90142.4
85585.4
86535.2
79929.4
82042
72272.5
76440.8
61820.5
69811.5
47780.7
62783.1
28594.9
54820.2
-1662.41
40807.7
-56929.4
13614.8
-168098
-14258.1
-76323.1
6021.77
-33347
16739.9
-8065.65
23565.9
9542.27
30565
23585.8
37585.4
34611.3
43981.8
43309.3
49731.3
50294.1
54803.8
55906.9
59103.7
60305
62560.4
63658.6
65271.8
66240.5
67444
68316.9
69272.8
70099.4
70905.7
71721.7
72415.5
73232.4
73803.7
74624.7
75037
75881.2
76086.7
77009.6
76939.3
78052.1
77581.3
79098.9
77988.9
80358.4
78119.8
108550
108325
108194
107861
107652
107298
107039
106715
106475
106213
106017
105802
105634
105427
105246
104986
104749
104419
104144
103744
103436
102949
102607
102005
101633
100874
100480
99506.9
99106.6
97835
97462.6
95767.1
95482.4
93175.7
93082.9
89878.8
90154.1
85607
86548.3
79955.8
82056.7
72304.4
76456.8
61858.1
69830.1
47825
62809.2
28647.1
54862.5
-1594.94
40884.1
-56888.6
13636.1
-168698
-14428
-76334
5999.57
-33336.9
16731.2
-8050.81
23567.1
9561.93
30570.4
23603.3
37591
34626
43987.5
43321.4
49736.4
50303.3
54807.9
55913.7
59106.7
60309.6
62562.1
63661.4
65272.9
66242.5
67445.3
68319.1
69274.8
70101.8
70908
71723.7
72417.6
73233.5
73805.5
74624.9
75038.5
75880.4
76088.3
77007.7
76941.3
78049.1
77584.7
79094.4
77994.9
80352.2
78128.2
108573
108343
108212
107875
107665
107307
107047
106721
106479
106216
106020
105804
105636
105430
105249
104990
104754
104425
104149
103751
103442
102956
102614
102012
101640
100883
100488
99516.6
99114.9
97846
97471.5
95779.9
95492
93190.7
93093.5
89896.7
90165.9
85628.8
86561.5
79982.4
82071.5
72336.6
76473.1
61896.1
69849
47869.4
62835.4
28698.8
54904.2
-1528.67
40959.8
-56847
13658.8
-169301
-14598
-76343.6
5977.84
-33326.5
16722.6
-8035.8
23568.4
9581.68
30576
23620.9
37596.6
34640.7
43993.2
43333.4
49741.5
50312.6
54812
55920.5
59109.7
60314.3
62564
63664.2
65274
66244.6
67446.7
68321.4
69276.9
70104.2
70910.5
71725.8
72419.9
73234.8
73807.4
74625.2
75040.1
75879.8
76090
77006.1
76943.6
78046.3
77588.3
79090.3
78001.1
80346.3
78136.8
108596
108362
108230
107889
107677
107317
107055
106727
106484
106219
106022
105806
105638
105433
105252
104995
104759
104431
104155
103757
103448
102963
102621
102020
101648
100892
100495
99526.4
99123.3
97857.1
97480.5
95792.7
95501.8
93205.8
93104.2
89914.8
90177.7
85650.7
86574.9
80009.2
82086.5
72369
76489.7
61934.3
69868.1
47913.9
62861.5
28750.1
54945.1
-1463.66
41034.7
-56804.7
13683
-169909
-14768
-76352.1
5956.59
-33315.8
16714.4
-8020.64
23569.9
9601.51
30581.5
23638.4
37602.3
34655.4
43999
43345.5
49746.7
50321.9
54816.2
55927.4
59112.8
60318.9
62565.9
63667.1
65275.2
66246.8
67448.2
68323.7
69279.1
70106.8
70913.1
71728
72422.3
73236.2
73809.5
74625.8
75042
75879.4
76091.9
77004.7
76946.1
78043.8
77592.2
79086.5
78007.5
80340.8
78145.9
108619
108382
108248
107903
107689
107327
107062
106733
106488
106222
106024
105808
105640
105435
105256
104999
104764
104436
104161
103764
103455
102970
102628
102028
101655
100901
100503
99536.4
99131.7
97868.4
97489.6
95805.7
95511.6
93221
93115
89933
90189.7
85672.7
86588.3
80036.1
82101.6
72401.5
76506.4
61972.7
69887.4
47958.6
62887.6
28800.8
54985.2
-1399.94
41108.8
-56761.8
13708.5
-170521
-14938
-76359.4
5935.81
-33304.8
16706.3
-8005.3
23571.5
9621.42
30587.2
23656
37607.9
34670.1
44004.7
43357.5
49751.9
50331.1
54820.4
55934.3
59116
60323.6
62567.8
63670
65276.5
66249
67449.7
68326.1
69281.4
70109.5
70915.7
71730.3
72424.8
73237.8
73811.6
74626.4
75043.9
75879.2
76094
77003.5
76948.7
78041.5
77596.2
79083.1
78014.3
80335.6
78155.3
108643
108401
108266
107918
107702
107336
107070
106738
106492
106225
106026
105810
105642
105438
105259
105004
104769
104442
104167
103770
103461
102978
102635
102037
101663
100910
100511
99546.4
99140.3
97879.7
97498.8
95818.7
95521.6
93236.3
93125.9
89951.3
90201.8
85694.8
86601.8
80063.1
82116.8
72434.2
76523.3
62011.3
69906.9
48003.3
62913.6
28851.1
55024.6
-1337.58
41181.9
-56718.5
13735.5
-171136
-15107.7
-76365.4
5915.52
-33293.5
16698.6
-7989.8
23573.3
9641.41
30592.9
23673.6
37613.6
34684.8
44010.5
43369.6
49757.1
50340.4
54824.7
55941.2
59119.2
60328.4
62569.9
63673
65277.8
66251.3
67451.4
68328.6
69283.8
70112.2
70918.5
71732.8
72427.4
73239.4
73813.9
74627.2
75046
75879.1
76096.2
77002.6
76951.6
78039.5
77600.5
79079.9
78021.2
80330.6
78165
108666
108420
108285
107932
107714
107346
107078
106744
106496
106229
106029
105812
105644
105440
105262
105008
104774
104448
104173
103777
103468
102985
102642
102045
101671
100919
100520
99556.6
99149
97891.2
97508.1
95831.9
95531.6
93251.7
93136.9
89969.6
90213.9
85717.1
86615.5
80090.2
82132.2
72467.1
76540.4
62050.2
69926.6
48048
62939.4
28900.8
55063.1
-1276.59
41253.9
-56674.9
13763.7
-171756
-15277.3
-76370.2
5895.72
-33281.9
16691.1
-7974.13
23575.3
9661.48
30598.6
23691.2
37619.4
34699.5
44016.4
43381.6
49762.3
50349.6
54828.9
55948.1
59122.5
60333.2
62572
63676.1
65279.2
66253.6
67453
68331.1
69286.2
70115
70921.4
71735.3
72430.1
73241.1
73816.2
74628
75048.1
75879.2
76098.5
77001.8
76954.5
78037.8
77605
79077
78028.4
80326
78175
108690
108440
108303
107946
107727
107356
107086
106750
106501
106232
106031
105814
105646
105442
105265
105012
104779
104453
104179
103783
103474
102992
102650
102053
101678
100928
100528
99566.9
99157.9
97902.8
97517.5
95845.2
95541.8
93267.2
93147.9
89988.1
90226.2
85739.4
86629.2
80117.5
82147.6
72500.1
76557.7
62089.2
69946.5
48092.8
62965.1
28949.9
55100.9
-1216.99
41324.8
-56631
13793.1
-172381
-15446.5
-76373.8
5876.39
-33269.9
16684
-7958.29
23577.4
9681.62
30604.4
23708.8
37625.2
34714.2
44022.2
43393.6
49767.5
50358.9
54833.2
55955
59125.8
60338
62574.1
63679.1
65280.7
66256
67454.8
68333.7
69288.7
70117.9
70924.3
71737.9
72432.9
73242.9
73818.6
74629
75050.4
75879.3
76101
77001.1
76957.7
78036.2
77609.6
79074.3
78035.8
80321.6
78185.3
108714
108460
108322
107961
107740
107366
107093
106756
106505
106235
106033
105816
105648
105445
105268
105016
104784
104459
104185
103790
103481
103000
102657
102062
101686
100937
100536
99577.3
99166.8
97914.5
97527
95858.5
95552
93282.8
93159.1
90006.7
90238.5
85761.9
86643
80144.8
82163.2
72533.3
76575
62128.3
69966.5
48137.5
62990.7
28998.5
55137.9
-1158.81
41394.4
-56587.2
13823.7
-173009
-15615.4
-76376.1
5857.55
-33257.7
16677.1
-7942.27
23579.7
9701.83
30610.3
23726.5
37631
34728.9
44028.1
43405.7
49772.8
50368.1
54837.6
55961.9
59129.2
60342.9
62576.3
63682.3
65282.2
66258.4
67456.5
68336.3
69291.3
70120.8
70927.3
71740.5
72435.7
73244.8
73821
74630
75052.7
75879.6
76103.5
77000.6
76960.9
78034.9
77614.3
79072
78043.3
80317.5
78195.9
108739
108480
108341
107975
107753
107376
107101
106762
106509
106238
106036
105818
105649
105447
105271
105020
104789
104464
104190
103797
103488
103008
102664
102070
101694
100947
100545
99587.8
99175.8
97926.3
97536.7
95872
95562.3
93298.5
93170.3
90025.4
90250.9
85784.4
86656.8
80172.2
82178.8
72566.5
76592.5
62167.6
69986.6
48182.2
63016
29046.5
55174
-1102.05
41462.7
-56543.4
13855.3
-173642
-15784
-76377.1
5839.18
-33245.2
16670.5
-7926.08
23582.1
9722.12
30616.2
23744.1
37636.8
34743.6
44033.9
43417.7
49778.1
50377.4
54841.9
55968.9
59132.6
60347.8
62578.6
63685.4
65283.8
66260.8
67458.4
68339
69293.9
70123.8
70930.3
71743.2
72438.5
73246.7
73823.6
74631
75055
75879.9
76106.1
77000.2
76964.2
78033.7
77619.2
79069.8
78051.1
80313.6
78206.7
108764
108500
108360
107990
107766
107386
107109
106768
106514
106241
106038
105820
105651
105449
105274
105024
104793
104470
104196
103803
103494
103015
102672
102079
101702
100956
100554
99598.5
99185
97938.2
97546.4
95885.6
95572.7
93314.3
93181.6
90044.1
90263.3
85806.9
86670.7
80199.7
82194.4
72599.8
76610.1
62206.9
70006.7
48226.8
63041.1
29093.9
55209.4
-1046.71
41529.7
-56499.9
13887.8
-174279
-15952
-76377
5821.27
-33232.3
16664.2
-7909.71
23584.8
9742.48
30622.2
23761.8
37642.6
34758.3
44039.8
43429.7
49783.4
50386.6
54846.3
55975.8
59136.1
60352.7
62581
63688.6
65285.4
66263.3
67460.2
68341.7
69296.5
70126.8
70933.4
71746
72441.4
73248.7
73826.1
74632.2
75057.4
75880.3
76108.7
77000
76967.6
78032.6
77624.2
79067.8
78058.9
80309.9
78217.7
108789
108520
108380
108005
107778
107396
107117
106774
106518
106245
106040
105822
105653
105451
105276
105028
104798
104475
104202
103810
103501
103023
102679
102087
101710
100966
100562
99609.2
99194.3
97950.3
97556.3
95899.3
95583.2
93330.2
93193
90063
90275.8
85829.6
86684.6
80227.2
82210.1
72633.2
76627.7
62246.3
70026.9
48271.2
63066
29140.6
55243.9
-992.786
41595.2
-56456.8
13921.3
-174921
-16119.6
-76375.5
5803.82
-33219.2
16658.3
-7893.17
23587.6
9762.91
30628.2
23779.5
37648.5
34773
44045.7
43441.6
49788.7
50395.8
54850.7
55982.8
59139.6
60357.7
62583.4
63691.9
65287.1
66265.9
67462.2
68344.4
69299.2
70129.9
70936.5
71748.8
72444.4
73250.7
73828.7
74633.4
75059.9
75880.8
76111.4
76999.8
76971.1
78031.7
77629.3
79066
78066.9
80306.4
78228.9
108814
108540
108399
108020
107792
107406
107125
106780
106523
106248
106043
105824
105655
105453
105279
105031
104802
104481
104208
103816
103508
103030
102687
102096
101719
100976
100571
99620.1
99203.7
97962.4
97566.2
95913.1
95593.9
93346.2
93204.5
90081.9
90288.4
85852.3
86698.6
80254.7
82225.8
72666.5
76645.4
62285.8
70047.1
48315.6
63090.6
29186.8
55277.6
-940.261
41659.3
-56414.1
13955.5
-175566
-16286.7
-76372.8
5786.82
-33205.8
16652.6
-7876.46
23590.6
9783.42
30634.4
23797.2
37654.4
34787.7
44051.7
43453.6
49794
50405
54855.2
55989.8
59143.2
60362.6
62585.8
63695.1
65288.8
66268.4
67464.1
68347.2
69301.9
70133
70939.6
71751.6
72447.4
73252.8
73831.3
74634.6
75062.3
75881.4
76114.1
76999.7
76974.6
78031
77634.5
79064.4
78074.9
80303.1
78240.2
108840
108561
108419
108035
107805
107416
107134
106786
106527
106252
106045
105826
105656
105455
105281
105035
104806
104486
104213
103823
103514
103038
102694
102105
101727
100986
100580
99631.1
99213.2
97974.7
97576.3
95927
95604.6
93362.3
93216
90100.8
90301
85875
86712.6
80282.3
82241.5
72699.9
76663.1
62325.2
70067.3
48359.7
63114.9
29232.3
55310.5
-889.119
41721.9
-56372.1
13990.3
-176217
-16453.1
-76368.9
5770.26
-33192.1
16647.3
-7859.58
23593.8
9804.01
30640.6
23814.9
37660.4
34802.4
44057.6
43465.6
49799.3
50414.2
54859.6
55996.8
59146.8
60367.6
62588.3
63698.5
65290.6
66271
67466.1
68349.9
69304.6
70136.1
70942.8
71754.5
72450.4
73254.9
73833.9
74635.9
75064.8
75881.9
76116.9
76999.7
76978.2
78030.3
77639.7
79063
78083
80300
78251.7
108866
108582
108438
108050
107818
107426
107142
106793
106532
106255
106048
105828
105658
105457
105283
105038
104810
104491
104219
103829
103521
103046
102702
102113
101735
100995
100589
99642.2
99222.8
97987.1
97586.4
95941.1
95615.3
93378.4
93227.6
90119.9
90313.6
85897.8
86726.6
80309.9
82257.2
72733.3
76680.7
62364.6
70087.5
48403.7
63138.9
29277.2
55342.7
-839.337
41782.9
-56330.9
14025.7
-176871
-16619.1
-76363.6
5754.13
-33178.2
16642.2
-7842.54
23597.3
9824.66
30646.9
23832.7
37666.3
34817
44063.6
43477.5
49804.7
50423.4
54864.1
56003.7
59150.4
60372.7
62590.8
63701.8
65292.5
66273.7
67468.2
68352.8
69307.4
70139.2
70946
71757.4
72453.4
73257
73836.6
74637.2
75067.3
75882.6
76119.7
76999.7
76981.8
78029.7
77644.9
79061.6
78091.2
80296.9
78263.3
108892
108603
108458
108065
107831
107437
107150
106799
106536
106258
106050
105830
105660
105459
105285
105041
104814
104496
104224
103835
103527
103053
102709
102122
101744
101005
100598
99653.3
99232.6
97999.6
97596.7
95955.2
95626.2
93394.7
93239.2
90139
90326.3
85920.6
86740.6
80337.5
82272.9
72766.7
76698.4
62404
70107.5
48447.5
63162.6
29321.4
55374
-790.889
41842.5
-56290.6
14061.6
-177531
-16784.4
-76357.1
5738.43
-33164
16637.5
-7825.34
23600.9
9845.4
30653.3
23850.4
37672.4
34831.7
44069.5
43489.4
49810
50432.5
54868.6
56010.7
59154.1
60377.8
62593.4
63705.2
65294.4
66276.4
67470.3
68355.6
69310.2
70142.4
70949.3
71760.3
72456.5
73259.2
73839.3
74638.5
75069.9
75883.3
76122.5
76999.8
76985.4
78029.3
77650.2
79060.4
78099.4
80294
78275
108918
108624
108479
108080
107844
107447
107158
106805
106541
106262
106052
105832
105661
105461
105287
105044
104818
104501
104229
103842
103534
103061
102717
102131
101752
101015
100607
99664.6
99242.4
98012.2
97607.1
95969.4
95637.2
93411
93250.9
90158.1
90339
85943.5
86754.6
80365
82288.5
72800
76716
62443.3
70127.5
48491
63186
29364.9
55404.5
-743.744
41900.5
-56251.3
14097.7
-178194
-16949.1
-76349.3
5723.15
-33149.5
16633.1
-7808
23604.7
9866.2
30659.7
23868.2
37678.4
34846.4
44075.5
43501.3
49815.4
50441.7
54873.1
56017.7
59157.8
60382.8
62596.1
63708.6
65296.3
66279.1
67472.4
68358.5
69313
70145.6
70952.5
71763.3
72459.6
73261.4
73842
74639.9
75072.4
75884
76125.3
77000
76989.1
78028.9
77655.6
79059.3
78107.7
80291.2
78286.8
108945
108645
108499
108096
107858
107458
107167
106812
106546
106265
106055
105834
105663
105462
105289
105047
104821
104505
104234
103848
103540
103068
102724
102140
101761
101025
100617
99675.9
99252.3
98024.9
97617.6
95983.7
95648.2
93427.4
93262.7
90177.3
90351.7
85966.3
86768.5
80392.6
82304.1
72833.3
76733.5
62482.5
70147.4
48534.3
63209
29407.9
55434.3
-697.87
41957.1
-56213.2
14134
-178863
-17113.2
-76340.2
5708.29
-33134.8
16628.9
-7790.5
23608.7
9887.08
30666.3
23886
37684.5
34861
44081.5
43513.2
49820.8
50450.8
54877.6
56024.7
59161.5
60388
62598.8
63712.1
65298.3
66281.9
67474.6
68361.4
69315.9
70148.8
70955.8
71766.3
72462.7
73263.7
73844.7
74641.3
75075
75884.8
76128.2
77000.2
76992.8
78028.6
77660.9
79058.4
78115.9
80288.5
78298.6
108973
108666
108519
108111
107871
107468
107175
106818
106551
106269
106058
105836
105665
105464
105291
105049
104825
104510
104239
103854
103546
103075
102732
102148
101769
101035
100626
99687.3
99262.3
98037.7
97628.1
95998.1
95659.3
93443.9
93274.5
90196.5
90364.5
85989.1
86782.5
80420.1
82319.6
72866.5
76751
62521.6
70167.2
48577.3
63231.6
29450.1
55463.2
-653.229
42012.1
-56176.3
14170.5
-179535
-17276.8
-76329.9
5693.84
-33119.8
16625
-7772.88
23612.9
9908.02
30673
23903.8
37690.7
34875.7
44087.6
43525.1
49826.2
50459.9
54882.2
56031.8
59165.3
60393.1
62601.5
63715.6
65300.3
66284.6
67476.8
68364.3
69318.8
70152
70959.1
71769.3
72465.8
73265.9
73847.4
74642.8
75077.6
75885.6
76131
77000.5
76996.5
78028.3
77666.3
79057.5
78124.2
80285.8
78310.4
109000
108688
108540
108127
107885
107479
107184
106825
106556
106273
106060
105838
105666
105466
105293
105052
104828
104514
104244
103859
103552
103083
102739
102157
101777
101046
100635
99698.8
99272.4
98050.5
97638.8
96012.6
95670.5
93460.4
93286.4
90215.8
90377.2
86012
86796.4
80447.5
82335
72899.6
76768.4
62560.6
70186.8
48620.1
63253.8
29491.8
55491.5
-609.783
42065.7
-56140.6
14206.8
-180213
-17439.7
-76318.2
5679.8
-33104.6
16621.5
-7755.12
23617.4
9929.04
30679.8
23921.6
37696.8
34890.3
44093.6
43536.9
49831.6
50469
54886.8
56038.8
59169.1
60398.3
62604.3
63719.2
65302.4
66287.5
67479.1
68367.3
69321.7
70155.2
70962.4
71772.3
72468.9
73268.2
73850.2
74644.3
75080.2
75886.5
76133.9
77000.9
77000.2
78028.2
77671.6
79056.7
78132.4
80283.2
78322.2
109028
108710
108561
108143
107899
107490
107192
106831
106560
106276
106063
105840
105668
105467
105294
105054
104831
104518
104248
103865
103558
103090
102746
102165
101786
101056
100645
99710.2
99282.5
98063.5
97649.5
96027.1
95681.8
93477
93298.3
90235.1
90389.9
86034.8
86810.2
80474.9
82350.3
72932.6
76785.6
62599.4
70206.2
48662.5
63275.7
29532.7
55519
-567.491
42117.8
-56106.5
14243
-180895
-17602.1
-76305.1
5666.17
-33089.2
16618.2
-7737.23
23622
9950.11
30686.7
23939.4
37703.1
34905
44099.7
43548.8
49837
50478.1
54891.4
56045.8
59173
60403.5
62607.1
63722.7
65304.6
66290.4
67481.4
68370.3
69324.7
70158.5
70965.7
71775.3
72472.1
73270.5
73853
74645.8
75082.8
75887.4
76136.8
77001.3
77003.9
78028.1
77677
79056
78140.7
80280.6
78334.1
109056
108731
108582
108158
107912
107501
107201
106838
106565
106280
106065
105843
105669
105469
105296
105056
104834
104522
104253
103870
103564
103097
102753
102174
101794
101065
100654
99721.7
99292.7
98076.5
97660.3
96041.8
95693.1
93493.6
93310.2
90254.4
90402.7
86057.6