/*--------------------------------*- C++ -*----------------------------------*\
| =========                 |                                                 |
| \\      /  F ield         | OpenFOAM: The Open Source CFD Toolbox           |
|  \\    /   O peration     | Version:  2412                                  |
|   \\  /    A nd           | Website:  www.openfoam.com                      |
|    \\/     M anipulation  |                                                 |
\*---------------------------------------------------------------------------*/
FoamFile
{
    version     2.0;
    format      ascii;
    arch        "LSB;label=32;scalar=64";
    class       surfaceScalarField;
    location    "0.6";
    object      phi;
}
// * * * * * * * * * * * * * * * * * * * * * * * * * * * * * * * * * * * * * //

dimensions      [0 3 -1 0 0 0 0];

oriented        oriented;

internalField   nonuniform List<scalar> 
25922
(
0.00749633
0.0254092
0.00745579
0.0209325
0.00744645
0.0171587
0.00745026
0.0141917
0.00745419
0.0109269
0.00744551
0.00708732
0.0074178
0.0024981
0.00737126
-0.00229585
0.00731048
-0.00677117
0.00724444
-0.0104544
0.00718499
-0.0129746
0.00714687
-0.0141064
0.00713973
-0.0136943
0.0071588
-0.0121389
0.00718665
-0.0101854
0.00721002
-0.0086162
0.00722667
-0.00747046
0.00724017
-0.00671871
0.00725246
-0.0060184
0.00726463
-0.0055049
0.00727601
-0.00491845
0.00728709
-0.00452382
0.00729683
-0.00396158
0.00730621
-0.00368157
0.00731385
-0.00312057
0.00732125
-0.00293816
0.00732652
-0.00235107
0.00733193
-0.00228301
0.00733475
-0.00161931
0.00733839
-0.00172579
0.00733885
-0.000936401
0.00734109
-0.00124279
0.00733925
-0.000254801
0.00734044
-0.000846491
0.00733608
0.0004253
0.00733631
-0.00053496
0.00732878
0.00115
0.00732797
-0.000339772
0.00191055
0.00749672
0.0254882
0.00745694
0.0209722
0.00744869
0.0171669
0.00745367
0.0141867
0.00745864
0.0109219
0.00745067
0.00709528
0.0074232
0.00252557
0.00737638
-0.00224903
0.00731477
-0.00670956
0.00724738
-0.010387
0.00718607
-0.0129133
0.0071458
-0.0140662
0.00713678
-0.0136853
0.00715483
-0.0121569
0.00718253
-0.0102131
0.00720606
-0.00863974
0.0072228
-0.0074872
0.00723627
-0.00673219
0.0072485
-0.00603063
0.0072606
-0.00551701
0.00727194
-0.00492979
0.00728299
-0.00453487
0.00729271
-0.00397131
0.00730208
-0.00369094
0.0073097
-0.00312819
0.00731709
-0.00294555
0.00732237
-0.00235635
0.00732778
-0.00228842
0.0073306
-0.00162213
0.00733425
-0.00172944
0.00733473
-0.000936881
0.00733699
-0.00124505
0.00733518
-0.000252987
0.00733641
-0.000847724
0.00733209
0.000429619
0.00733237
-0.000535243
0.00732491
0.00115747
0.00732418
-0.000339045
0.00731215
0.00192258
0.00730852
-0.000302709
0.00728828
0.00246097
0.00728014
-0.00103983
0.00725374
0.0017743
0.0072497
-0.00358033
0.00723246
-0.00091162
0.00725372
-0.00748726
0.00727339
-0.00325392
0.00734059
-0.00719546
0.00738669
0.00179759
0.00744949
0.00389855
0.00748946
0.0141324
0.00756698
0.036029
0.00763684
0.0628259
0.00775529
-0.0172045
0.00781233
-0.0491439
0.00786855
-0.030696
0.00787106
-0.00850745
0.00786805
-0.00364851
0.00783304
0.0069286
0.00778519
0.00539748
0.00772111
0.00841202
0.00765795
0.00314082
0.0076057
0.0038741
0.0075643
-8.28099e-05
0.00753892
0.00109873
0.00751434
-0.00146505
0.00749847
-0.00038913
0.00747761
-0.00213123
-0.00111339
0.00749712
0.0255668
0.00745812
0.0210112
0.00745097
0.0171741
0.00745714
0.0141805
0.00746316
0.0109159
0.00745593
0.0071025
0.00742872
0.00255279
0.00738163
-0.00220195
0.0073192
-0.00664713
0.00725046
-0.0103182
0.00718728
-0.0128501
0.00714483
-0.0140237
0.00713388
-0.0136743
0.00715086
-0.0121739
0.00717836
-0.0102406
0.00720207
-0.00866344
0.00721891
-0.00750404
0.00723236
-0.00674564
0.00724453
-0.0060428
0.00725657
-0.00552905
0.00726787
-0.00494109
0.00727889
-0.00454589
0.00728859
-0.00398101
0.00729794
-0.00370029
0.00730556
-0.00313581
0.00731295
-0.00295295
0.00731822
-0.00236162
0.00732364
-0.00229384
0.00732647
-0.00162496
0.00733013
-0.0017331
0.00733063
-0.000937377
0.00733291
-0.00124734
0.00733113
-0.000251206
0.00733241
-0.000848999
0.00732814
0.000433889
0.00732848
-0.000535588
0.00732108
0.00116487
0.00732044
-0.000338405
0.00730851
0.00193452
0.00730499
-0.000299193
0.00728483
0.00248114
0.00727666
-0.00103167
0.00725003
0.00180093
0.00724557
-0.00357587
0.00722761
-0.000893654
0.00724799
-0.00750764
0.00726689
-0.00327282
0.00733414
-0.00726271
0.00738151
0.00175021
0.00744582
0.00383425
0.00748692
0.0140913
0.0075665
0.0359494
0.00763906
0.0627533
0.00775599
-0.0173214
0.00780992
-0.0491978
0.00786605
-0.0307521
0.00787074
-0.00851214
0.00787068
-0.00364845
0.0078391
0.00696017
0.00779406
0.00544252
0.0077321
0.00847399
0.00766954
0.00320337
0.00761703
0.00392662
0.00757439
-4.01821e-05
0.00754777
0.00112535
0.00752156
-0.00143883
0.00750424
-0.000371811
0.00748122
-0.00210821
0.00746646
-0.00109861
0.00745123
-0.00202554
0.00745066
-0.000903534
0.00745815
-0.00106909
0.00748035
0.000209233
0.00750527
0.000612192
0.00752885
0.00193299
0.00754139
0.00255254
0.00754224
0.00359501
0.0075319
0.00403357
0.00751332
0.00452248
0.00748911
0.00453961
0.00746145
0.00447429
0.00743271
0.00417145
0.0074048
0.0037774
0.00737964
0.00345469
0.00735839
0.00305746
0.00734123
0.00299328
0.00732742
0.00276134
0.00731497
0.00299567
0.00730266
0.00280259
0.00728769
0.00325299
0.00727103
0.00291174
0.00724868
0.0034521
0.00722524
0.00277176
0.00719181
0.00330323
0.00716016
0.00208095
0.00710786
0.00235324
0.00706412
0.000276697
0.00696794
-0.000189602
-0.00441953
0.00749753
0.0256451
0.00745933
0.0210494
0.00745329
0.0171801
0.00746067
0.0141732
0.00746775
0.0109088
0.00746128
0.00710897
0.00743434
0.00257974
0.00738699
-0.0021546
0.00732376
-0.0065839
0.00725367
-0.0102481
0.00718863
-0.0127851
0.00714397
-0.013979
0.00713103
-0.0136614
0.00714687
-0.0121897
0.00717416
-0.0102679
0.00719804
-0.00868732
0.007215
-0.007521
0.00722844
-0.00675908
0.00724055
-0.0060549
0.00725253
-0.00554104
0.00726379
-0.00495235
0.00727479
-0.00455688
0.00728447
-0.00399069
0.00729381
-0.00370963
0.00730142
-0.00314342
0.00730881
-0.00296034
0.00731409
-0.00236689
0.00731951
-0.00229926
0.00732235
-0.0016278
0.00732603
-0.00173678
0.00732655
-0.000937892
0.00732886
-0.00124965
0.00732711
-0.000249457
0.00732844
-0.000850321
0.00732422
0.000438107
0.00732463
-0.000535999
0.0073173
0.0011722
0.00731675
-0.000337857
0.00730493
0.00194634
0.00730154
-0.000295803
0.00728145
0.00250123
0.00727327
-0.00102349
0.00724641
0.00182779
0.00724152
-0.00357098
0.00722281
-0.00087494
0.00724228
-0.00752712
0.00726036
-0.0032909
0.00732759
-0.00732994
0.00737625
0.00170156
0.00744212
0.00376838
0.0074844
0.014049
0.00756604
0.0358677
0.00764123
0.0626782
0.0077565
-0.0174367
0.00780722
-0.0492485
0.00786324
-0.0308081
0.0078702
-0.0085191
0.00787322
-0.00365147
0.00784522
0.00698817
0.0078031
0.00548464
0.00774336
0.00853372
0.00768155
0.00326518
0.00762888
0.00397929
0.00758514
3.54988e-06
0.00755736
0.00115314
0.00752959
-0.00141107
0.00751087
-0.000353084
0.00748579
-0.00208313
0.0074688
-0.00108163
0.00745051
-0.00200725
0.00744712
-0.000900136
0.00745198
-0.00107395
0.00747338
0.000187832
0.00749916
0.000586409
0.00752567
0.00190648
0.00754153
0.00253668
0.00754547
0.00359108
0.00753711
0.00404192
0.00751969
0.0045399
0.00749591
0.00456339
0.00746817
0.00450203
0.0074389
0.00420072
0.0074101
0.0038062
0.00738381
0.00348098
0.00736133
0.00307994
0.00734311
0.00301151
0.00732848
0.00277596
0.00731563
0.00300852
0.00730315
0.00281507
0.00728832
0.00326782
0.00727182
0.00292824
0.00724977
0.00347414
0.00722657
0.00279497
0.00719348
0.00333633
0.00716202
0.00211241
0.00710987
0.00240539
0.00706608
0.000320484
0.00696902
-9.25404e-05
-0.00433432
0.00749795
0.0257229
0.00746056
0.0210868
0.00745566
0.017185
0.00746426
0.0141646
0.00747243
0.0109006
0.00746673
0.00711468
0.00744006
0.0026064
0.00739247
-0.00210701
0.00732844
-0.00651987
0.00725701
-0.0101767
0.0071901
-0.0127181
0.00714323
-0.0139322
0.00712825
-0.0136464
0.0071429
-0.0122044
0.00716994
-0.0102949
0.00719398
-0.00871137
0.00721108
-0.00753809
0.00722451
-0.00677251
0.00723656
-0.00606695
0.00724849
-0.00555297
0.00725972
-0.00496358
0.00727069
-0.00456785
0.00728036
-0.00400037
0.00728969
-0.00371897
0.0072973
-0.00315102
0.00730469
-0.00296772
0.00730997
-0.00237217
0.0073154
-0.00230469
0.00731826
-0.00163066
0.00732195
-0.00174048
0.00732249
-0.000938431
0.00732484
-0.001252
0.00732313
-0.000247745
0.0073245
-0.000851691
0.00732034
0.000442268
0.00732082
-0.00053648
0.00731357
0.00117945
0.00731311
-0.000337406
0.0073014
0.00195805
0.00729815
-0.000292544
0.00727814
0.00252123
0.00726996
-0.00101531
0.00724287
0.00185488
0.00723755
-0.00356565
0.00721807
-0.00085546
0.00723659
-0.00754564
0.00725378
-0.00330809
0.00732094
-0.00739709
0.00737089
0.00165161
0.00743838
0.00370088
0.00748191
0.0140055
0.0075656
0.0357841
0.00764335
0.0626004
0.00775684
-0.0175502
0.00780424
-0.0492959
0.0078601
-0.030864
0.0078694
-0.00852839
0.00787562
-0.00365769
0.00785134
0.00701245
0.00781226
0.00552373
0.00775485
0.00859112
0.0076939
0.00332613
0.00764119
0.004032
0.00759649
4.82526e-05
0.0075676
0.00118202
0.0075384
-0.00138187
0.00751831
-0.000332988
0.00749128
-0.0020561
0.00747212
-0.00106247
0.00745083
-0.00198595
0.00744448
-0.000893782
0.00744644
-0.00107591
0.00746657
0.000167702
0.00749276
0.000560222
0.00752198
0.00187726
0.00754131
0.00251735
0.0075487
0.00358369
0.00754269
0.00404793
0.0075267
0.00455588
0.00750349
0.00458659
0.00747575
0.00452977
0.00744598
0.00423049
0.00741627
0.00383591
0.0073888
0.00350845
0.00736499
0.00310374
0.00734559
0.00303091
0.00733003
0.00279152
0.00731667
0.00302188
0.00730396
0.00282778
0.00728922
0.00328256
0.00727286
0.0029446
0.00725115
0.00349585
0.00722818
0.00281794
0.00719546
0.00336904
0.00716421
0.00214365
0.00711227
0.00245733
0.00706846
0.000364293
0.00697061
5.31504e-06
-0.00424747
0.00749839
0.0258002
0.00746181
0.0211234
0.00745807
0.0171887
0.00746791
0.0141547
0.00747718
0.0108914
0.00747227
0.00711959
0.0074459
0.00263277
0.00739808
-0.00205919
0.00733326
-0.00645506
0.0072605
-0.0101039
0.00719172
-0.0126494
0.0071426
-0.013883
0.00712554
-0.0136293
0.00713893
-0.0122177
0.00716568
-0.0103216
0.0071899
-0.00873559
0.00720713
-0.00755532
0.00722057
-0.00678596
0.00723257
-0.00607894
0.00724445
-0.00556485
0.00725564
-0.00497476
0.00726659
-0.0045788
0.00727625
-0.00401003
0.00728558
-0.00372829
0.00729318
-0.00315863
0.00730058
-0.00297512
0.00730587
-0.00237746
0.00731131
-0.00231013
0.00731418
-0.00163353
0.0073179
-0.0017442
0.00731846
-0.000938996
0.00732084
-0.00125437
0.00731917
-0.000246074
0.00732059
-0.000853115
0.00731649
0.000446369
0.00731705
-0.000537035
0.00730988
0.00118662
0.00730953
-0.000337055
0.00729794
0.00196964
0.00729482
-0.000289424
0.00727492
0.00254113
0.00726673
-0.00100712
0.00723943
0.00188218
0.00723365
-0.00355988
0.00721339
-0.000835196
0.00723093
-0.00756318
0.00724718
-0.00332434
0.0073142
-0.00746411
0.00736543
0.00160038
0.0074346
0.00363171
0.00747944
0.0139606
0.00756516
0.0356983
0.00764543
0.0625201
0.00775701
-0.0176618
0.00780097
-0.0493399
0.00785663
-0.0309196
0.00786833
-0.00854009
0.00787786
-0.00366722
0.00785744
0.00703287
0.0078215
0.00555966
0.00776654
0.00864608
0.00770657
0.00338611
0.00765393
0.00408463
0.00760839
9.37964e-05
0.00757847
0.00121194
0.00754794
-0.00135134
0.00752653
-0.000311572
0.00749767
-0.00202725
0.00747641
-0.00104119
0.00745221
-0.00196175
0.00744284
-0.000884406
0.00744171
-0.00107478
0.00746013
0.000149281
0.00748624
0.000534117
0.00751783
0.00184566
0.00754064
0.00249454
0.00755183
0.00357251
0.00754855
0.00405121
0.00753431
0.00457013
0.00751186
0.00460904
0.00748422
0.00455741
0.00745399
0.00426071
0.00742338
0.00386653
0.00739467
0.00353716
0.00736946
0.00312896
0.00734875
0.00305162
0.00733212
0.00280815
0.00731815
0.00303584
0.00730513
0.00284081
0.00729044
0.00329724
0.00727421
0.00296084
0.00725283
0.00351722
0.0072301
0.00284067
0.00719779
0.00340136
0.00716677
0.00217468
0.00711509
0.00250901
0.00707128
0.0004081
0.00697273
0.000103868
-0.00415901
0.00749883
0.0258772
0.00746309
0.0211591
0.00746052
0.0171913
0.00747161
0.0141436
0.00748201
0.010881
0.0074779
0.00712369
0.00745185
0.00265881
0.00740381
-0.00201115
0.00733822
-0.00638947
0.00726413
-0.0100298
0.00719349
-0.0125787
0.00714211
-0.0138317
0.00712291
-0.0136101
0.00713497
-0.0122298
0.00716139
-0.0103481
0.00718577
-0.00875997
0.00720316
-0.00757271
0.00721662
-0.00679942
0.00722857
-0.0060909
0.0072404
-0.00557669
0.00725156
-0.00498592
0.00726249
-0.00458973
0.00727214
-0.00401969
0.00728147
-0.00373762
0.00728908
-0.00316624
0.00729648
-0.00298252
0.00730178
-0.00238276
0.00730724
-0.00231559
0.00731012
-0.00163641
0.00731386
-0.00174794
0.00731446
-0.000939588
0.00731687
-0.00125679
0.00731525
-0.000244448
0.00731672
-0.000854592
0.00731269
0.000450404
0.00731332
-0.000537668
0.00730624
0.0011937
0.00730599
-0.000336811
0.00729454
0.0019811
0.00729156
-0.000286452
0.00727177
0.00256093
0.00726359
-0.000998941
0.00723607
0.00190969
0.00722984
-0.00355365
0.00720878
-0.00081413
0.00722529
-0.0075797
0.00724055
-0.00333959
0.00730736
-0.00753092
0.00735986
0.00154787
0.00743077
0.0035608
0.00747699
0.0139144
0.00756474
0.0356106
0.00764747
0.0624374
0.00775701
-0.0177713
0.0077974
-0.0493803
0.00785281
-0.030975
0.00786696
-0.00855425
0.00787992
-0.00368018
0.00786349
0.0070493
0.00783082
0.00559233
0.00777841
0.00869849
0.00771953
0.00344499
0.00766707
0.00413709
0.00762081
0.000140058
0.00758994
0.00124281
0.00755818
-0.00131959
0.0075355
-0.000288888
0.00750494
-0.00199669
0.00748164
-0.00101789
0.00745466
-0.00193477
0.00744225
-0.000871996
0.00743792
-0.00107044
0.00745426
0.00013295
0.00747979
0.000508586
0.0075133
0.00181215
0.00753951
0.00246833
0.00755474
0.00355727
0.00755462
0.00405134
0.00754247
0.00458227
0.00752101
0.0046305
0.00749361
0.0045848
0.007463
0.00429132
0.00743149
0.00389803
0.00740153
0.00356712
0.00737482
0.00315567
0.00735269
0.00307375
0.00733484
0.00282599
0.00732014
0.00305054
0.00730669
0.00285425
0.00729202
0.00331191
0.00727588
0.00297698
0.00725485
0.00353825
0.00723236
0.00286316
0.00720048
0.00343324
0.0071697
0.00220546
0.00711833
0.00256038
0.00707455
0.000451878
0.0069754
0.000203017
-0.00406895
0.00749929
0.0259536
0.0074644
0.021194
0.00746302
0.0171927
0.00747539
0.0141313
0.00748692
0.0108695
0.00748363
0.00712698
0.00745792
0.00268453
0.00740967
-0.0019629
0.00734331
-0.00632311
0.00726792
-0.00995445
0.00719541
-0.0125062
0.00714177
-0.013778
0.00712037
-0.0135887
0.00713103
-0.0122405
0.00715707
-0.0103741
0.00718161
-0.00878451
0.00719917
-0.00759026
0.00721266
-0.00681291
0.00722456
-0.0061028
0.00723635
-0.00558847
0.00724748
-0.00499704
0.00725839
-0.00460064
0.00726804
-0.00402934
0.00727737
-0.00374695
0.00728498
-0.00317386
0.00729239
-0.00298993
0.0072977
-0.00238807
0.00730318
-0.00232106
0.00730608
-0.00163932
0.00730985
-0.00175171
0.00731048
-0.000940211
0.00731293
-0.00125925
0.00731135
-0.000242867
0.00731289
-0.00085613
0.00730893
0.000454371
0.00730964
-0.000538382
0.00730265
0.00120069
0.00730252
-0.000336677
0.0072912
0.00199242
0.00728838
-0.000283635
0.0072687
0.00258061
0.00726054
-0.000990776
0.00723281
0.00193742
0.00722612
-0.00354696
0.00720424
-0.000792246
0.0072197
-0.00759515
0.00723389
-0.00335379
0.00730042
-0.00759745
0.00735419
0.0014941
0.00742689
0.00348809
0.00747456
0.0138668
0.00756434
0.0355208
0.00764947
0.0623523
0.00775683
-0.0178787
0.00779352
-0.049417
0.00784861
-0.0310301
0.00786527
-0.00857091
0.00788176
-0.00369667
0.00786948
0.00706158
0.00784019
0.00562162
0.00779043
0.00874825
0.00773275
0.00350267
0.00768058
0.00418927
0.00763371
0.00018692
0.00760197
0.00127456
0.00756908
-0.0012867
0.00754519
-0.000264995
0.00751305
-0.00196456
0.0074878
-0.000992634
0.00745818
-0.00190515
0.00744277
-0.000856588
0.00743519
-0.00106286
0.00744913
0.00011902
0.00747362
0.000484096
0.00750854
0.00177722
0.0075379
0.00243896
0.00755736
0.00353782
0.00756078
0.00404792
0.00755114
0.00459191
0.00753095
0.00465069
0.00750396
0.00461179
0.00747306
0.00432222
0.0074407
0.00393039
0.00740947
0.00359834
0.00738118
0.00318396
0.00735751
0.00309742
0.00733829
0.00284521
0.00732272
0.00306611
0.00730874
0.00286824
0.00729401
0.00332664
0.00727791
0.00299309
0.00725722
0.00355894
0.00723497
0.0028854
0.00720356
0.00346465
0.00717303
0.00223599
0.00712203
0.00261139
0.0070783
0.000495605
0.00697867
0.00030265
-0.00397733
0.00749976
0.0260296
0.00746574
0.0212281
0.00746557
0.0171929
0.00747923
0.0141176
0.00749191
0.0108568
0.00748947
0.00712942
0.0074641
0.0027099
0.00741566
-0.00191446
0.00734855
-0.00625601
0.00727186
-0.00987775
0.0071975
-0.0124319
0.00714157
-0.0137221
0.00711793
-0.0135651
0.00712713
-0.0122497
0.00715273
-0.0103997
0.00717742
-0.0088092
0.00719515
-0.00760799
0.00720868
-0.00682643
0.00722055
-0.00611468
0.0072323
-0.00560022
0.0072434
-0.00500814
0.0072543
-0.00461154
0.00726394
-0.00403899
0.00727328
-0.00375628
0.0072809
-0.00318148
0.00728832
-0.00299735
0.00729365
-0.0023934
0.00729914
-0.00232656
0.00730207
-0.00164225
0.00730587
-0.0017555
0.00730653
-0.000940871
0.00730903
-0.00126174
0.0073075
-0.000241337
0.0073091
-0.000857731
0.0073052
0.000458263
0.00730601
-0.000539184
0.00729911
0.00120758
0.0072991
-0.00033666
0.00728792
0.00200359
0.00728527
-0.000280981
0.00726572
0.00260016
0.00725758
-0.000982635
0.00722965
0.00196535
0.00722249
-0.00353981
0.00719978
-0.000769528
0.00721414
-0.00760952
0.00722722
-0.00336687
0.00729338
-0.00766361
0.0073484
0.00143908
0.00742295
0.00341355
0.00747214
0.0138176
0.00756395
0.035429
0.00765142
0.0622648
0.00775648
-0.0179837
0.00778933
-0.0494498
0.00784403
-0.0310848
0.00786324
-0.00859011
0.00788336
-0.00371679
0.00787537
0.00706958
0.00784958
0.0056474
0.00780259
0.00879524
0.00774622
0.00355904
0.00769443
0.00424106
0.00764708
0.00023427
0.00761453
0.00130711
0.00758061
-0.00125278
0.00755556
-0.000239949
0.00752196
-0.00193095
0.00749485
-0.00096552
0.00746274
-0.00187304
0.00744441
-0.000838256
0.00743359
-0.00105204
0.00744489
0.000107722
0.00746792
0.000461062
0.00750369
0.00174146
0.00753587
0.00240678
0.00755958
0.00351412
0.00756691
0.00404059
0.00756021
0.00459861
0.00754163
0.00466927
0.00751527
0.00463815
0.00748421
0.00435329
0.00745106
0.00396354
0.00741857
0.00363083
0.00738866
0.00321387
0.00736333
0.00312275
0.00734258
0.00286596
0.00732598
0.00308271
0.00731133
0.00288289
0.00729647
0.00334149
0.00728036
0.0030092
0.00726001
0.00357929
0.00723799
0.00290743
0.00720707
0.00349557
0.0071768
0.00226626
0.00712622
0.00266196
0.00708257
0.000539258
0.00698257
0.000402649
-0.00388417
0.00750024
0.0261051
0.00746711
0.0212612
0.00746816
0.0171918
0.00748313
0.0141026
0.00749699
0.0108429
0.0074954
0.00713101
0.0074704
0.0027349
0.00742178
-0.00186584
0.00735394
-0.00618816
0.00727596
-0.00979977
0.00719976
-0.0123557
0.00714153
-0.0136639
0.0071156
-0.0135392
0.00712325
-0.0122573
0.00714838
-0.0104248
0.00717319
-0.00883401
0.00719111
-0.00762591
0.00720469
-0.00684001
0.00721653
-0.00612652
0.00722824
-0.00561192
0.00723931
-0.00501922
0.0072502
-0.00462244
0.00725985
-0.00404864
0.00726919
-0.00376562
0.00727683
-0.00318912
0.00728426
-0.00300478
0.00728961
-0.00239874
0.00729512
-0.00233207
0.00729808
-0.00164521
0.00730191
-0.00175933
0.00730261
-0.000941568
0.00730515
-0.00126429
0.00730367
-0.000239861
0.00730534
-0.000859399
0.00730153
0.000462078
0.00730242
-0.000540076
0.00729563
0.00121437
0.00729573
-0.000336764
0.00728471
0.00201461
0.00728223
-0.000278498
0.00726282
0.00261956
0.00725472
-0.000974527
0.00722658
0.00199349
0.00721896
-0.00353219
0.00719539
-0.00074596
0.00720863
-0.00762275
0.00722053
-0.00337877
0.00728624
-0.00772933
0.00734249
0.00138284
0.00741893
0.0033371
0.00746973
0.0137668
0.00756358
0.0353351
0.00765334
0.062175
0.00775596
-0.0180864
0.00778483
-0.0494787
0.00783904
-0.031139
0.00786083
-0.0086119
0.00788469
-0.00374066
0.00788113
0.00707315
0.00785897
0.00566956
0.00781485
0.00883936
0.0077599
0.00361399
0.00770859
0.00429236
0.00766086
0.000282
0.00762759
0.00134038
0.00759272
-0.00121791
0.00756659
-0.000213812
0.00753162
-0.00189598
0.00750274
-0.000936643
0.0074683
-0.00183859
0.00744715
-0.0008171
0.00743316
-0.00103805
0.00744167
9.92107e-05
0.0074629
0.000439833
0.00749896
0.0017054
0.0075335
0.00237223
0.00756135
0.00348627
0.00757288
0.00402906
0.00756958
0.00460191
0.007553
0.00468585
0.00752754
0.0046636
0.00749648
0.00438435
0.00746264
0.00399737
0.00742893
0.00366454
0.00739735
0.00324545
0.00737027
0.00314984
0.00734782
0.0028884
0.00733004
0.00310049
0.00731456
0.00289837
0.00729948
0.00335657
0.00728327
0.0030254
0.00726325
0.00359931
0.00724143
0.00292924
0.00721104
0.00352596
0.00718103
0.00229627
0.00713095
0.00271205
0.00708739
0.000582818
0.00698715
0.000502886
-0.00378951
0.00750074
0.0261802
0.00746851
0.0212934
0.0074708
0.0171895
0.00748711
0.0140863
0.00750215
0.0108279
0.00750144
0.00713171
0.00747682
0.00275952
0.00742805
-0.00181706
0.00735948
-0.0061196
0.00728023
-0.00972051
0.0072022
-0.0122776
0.00714166
-0.0136033
0.0071134
-0.0135109
0.00711942
-0.0122633
0.007144
-0.0104494
0.00716893
-0.00885895
0.00718705
-0.00764403
0.00720068
-0.00685364
0.0072125
-0.00613834
0.00722417
-0.00562359
0.00723522
-0.00503027
0.00724611
-0.00463332
0.00725576
-0.00405829
0.00726511
-0.00377497
0.00727277
-0.00319677
0.00728022
-0.00301224
0.00728559
-0.00240411
0.00729113
-0.00233761
0.00729412
-0.0016482
0.00729798
-0.0017632
0.00729872
-0.000942304
0.00730131
-0.00126688
0.00729989
-0.000238443
0.00730163
-0.000861136
0.0072979
0.00046581
0.00729888
-0.000541064
0.0072922
0.00122105
0.00729243
-0.000336994
0.00728157
0.00202548
0.00727927
-0.000276194
0.00726002
0.00263881
0.00725195
-0.000966461
0.00722363
0.00202181
0.00721553
-0.00352409
0.0071911
-0.000721528
0.00720317
-0.00763481
0.00721383
-0.00338943
0.00727902
-0.00779452
0.00733644
0.00132541
0.00741483
0.00325871
0.00746733
0.0137143
0.00756323
0.0352392
0.00765523
0.062083
0.00775527
-0.0181864
0.00778
-0.0495034
0.00783363
-0.0311927
0.00785801
-0.00863628
0.00788571
-0.00376836
0.00788673
0.00707213
0.00786832
0.00568796
0.00782719
0.00888048
0.00777377
0.00366742
0.00772305
0.00434308
0.00767504
0.000330008
0.00764112
0.0013743
0.00760539
-0.00118218
0.00757823
-0.000186644
0.007542
-0.00185976
0.00751145
-0.000906095
0.00747483
-0.00180196
0.00745097
-0.000793241
0.00743391
-0.00102099
0.00743955
9.35686e-05
0.0074587
0.000420683
0.00749452
0.00166958
0.00753092
0.00233583
0.00756266
0.00345453
0.00757856
0.00401315
0.00757909
0.00460138
0.00756496
0.00469999
0.00754073
0.00468783
0.00750988
0.0044152
0.00747548
0.00403177
0.00744061
0.00369941
0.00740736
0.0032787
0.00737844
0.00317875
0.00735416
0.00291269
0.00733501
0.00311964
0.00731853
0.00291486
0.00730311
0.00337199
0.00728673
0.00304178
0.007267
0.00361904
0.00724537
0.00295088
0.00721553
0.00355579
0.00718578
0.00232602
0.00713624
0.00276158
0.00709279
0.000626268
0.00699246
0.000603222
-0.0036934
0.00750125
0.0262547
0.00746994
0.0213247
0.00747349
0.017186
0.00749115
0.0140687
0.0075074
0.0108116
0.00750759
0.00713152
0.00748337
0.00278374
0.00743445
-0.00176815
0.00736518
-0.00605033
0.00728467
-0.00964
0.00720482
-0.0121978
0.00714198
-0.0135405
0.00711133
-0.0134803
0.00711565
-0.0122677
0.0071396
-0.0104734
0.00716463
-0.00888397
0.00718295
-0.00766235
0.00719666
-0.00686735
0.00720847
-0.00615015
0.0072201
-0.00563522
0.00723114
-0.00504131
0.00724201
-0.0046442
0.00725168
-0.00406796
0.00726104
-0.00378433
0.00726872
-0.00320445
0.00727619
-0.00301971
0.00728159
-0.0024095
0.00728715
-0.00234318
0.00729018
-0.00165122
0.00729408
-0.0017671
0.00729486
-0.000943084
0.0072975
-0.00126952
0.00729615
-0.000237086
0.00729796
-0.000862947
0.00729431
0.000469455
0.0072954
-0.000542152
0.00728883
0.00122762
0.0072892
-0.000337356
0.0072785
0.00203617
0.00727638
-0.000274077
0.0072573
0.0026579
0.00724929
-0.000958447
0.00722078
0.00205031
0.00721221
-0.00351551
0.0071869
-0.00069622
0.00719776
-0.00764568
0.00720713
-0.0033988
0.00727169
-0.00785908
0.00733027
0.00126683
0.00741065
0.00317834
0.00746493
0.01366
0.00756289
0.0351413
0.00765709
0.0619888
0.00775441
-0.0182837
0.00777484
-0.0495239
0.00782777
-0.0312456
0.00785476
-0.00866327
0.00788639
-0.00379999
0.00789213
0.00706639
0.00787761
0.00570249
0.00783959
0.00891849
0.0077878
0.00371921
0.00773777
0.00439311
0.00768958
0.000378193
0.0076551
0.00140878
0.00761859
-0.00114567
0.00759045
-0.000158505
0.00755305
-0.00182236
0.00752093
-0.000873968
0.00748226
-0.0017633
0.00745583
-0.000766811
0.00743583
-0.00100098
0.00743858
9.08169e-05
0.00745546
0.000403809
0.00749057
0.00163447
0.00752827
0.00229812
0.00756353
0.00341928
0.00758386
0.00399282
0.0075886
0.00459664
0.00757737
0.00471122
0.00755475
0.00471044
0.00752438
0.00444557
0.00748959
0.00406656
0.00745366
0.00373534
0.00741877
0.00331359
0.00738796
0.00320956
0.0073617
0.00293895
0.00734102
0.00314032
0.00732335
0.00293253
0.00730746
0.00338789
0.0072908
0.00305844
0.00727133
0.0036385
0.00724984
0.00297238
0.00722057
0.00358506
0.00719107
0.00235552
0.00714215
0.0028105
0.00709882
0.000669597
0.00699854
0.000703511
-0.00359588
0.00750178
0.0263286
0.0074714
0.0213551
0.00747623
0.0171811
0.00749526
0.0140496
0.00751274
0.0107941
0.00751385
0.00713042
0.00749004
0.00280754
0.007441
-0.00171911
0.00737104
-0.00598037
0.00728929
-0.00955825
0.00720764
-0.0121161
0.00714248
-0.0134753
0.00710941
-0.0134472
0.00711194
-0.0122702
0.00713521
-0.0104966
0.0071603
-0.00890906
0.00717883
-0.00768089
0.00719262
-0.00688115
0.00720442
-0.00616194
0.00721602
-0.00564682
0.00722704
-0.00505233
0.00723792
-0.00465508
0.0072476
-0.00407764
0.00725698
-0.00379371
0.00726468
-0.00321215
0.00727218
-0.00302721
0.0072776
-0.00241492
0.0072832
-0.00234878
0.00728626
-0.00165428
0.0072902
-0.00177104
0.00729103
-0.000943912
0.00729373
-0.00127222
0.00729244
-0.000235797
0.00729433
-0.000864837
0.00729078
0.000473009
0.00729197
-0.000543345
0.00728552
0.00123406
0.00728602
-0.000337855
0.0072755
0.00204669
0.00727358
-0.000272156
0.00725468
0.0026768
0.00724673
-0.000950495
0.00721805
0.00207899
0.00720899
-0.00350646
0.0071828
-0.000670022
0.00719242
-0.0076553
0.00720044
-0.00340682
0.00726428
-0.00792292
0.00732396
0.00120716
0.00740637
0.00309593
0.00746254
0.0136038
0.00756257
0.0350412
0.00765893
0.0618925
0.00775339
-0.0183782
0.00776935
-0.0495398
0.00782147
-0.0312977
0.00785106
-0.00869286
0.00788669
-0.00383562
0.00789731
0.00705577
0.0078868
0.005713
0.00785202
0.00895327
0.00780197
0.00376926
0.00775273
0.00444234
0.00770446
0.000426456
0.00766948
0.00144376
0.00763227
-0.00110846
0.00760322
-0.000129455
0.00756474
-0.00178388
0.00753113
-0.000840352
0.00749056
-0.00172273
0.0074617
-0.000737946
0.0074389
-0.000978178
0.00743879
9.09271e-05
0.00745326
0.000389337
0.00748726
0.00160047
0.00752574
0.00225964
0.00756402
0.003381
0.00758869
0.00396815
0.00759792
0.0045874
0.00759007
0.00471907
0.0075695
0.00473101
0.00753993
0.00447514
0.00750496
0.00410153
0.00746812
0.00377219
0.00743165
0.00335007
0.00739894
0.00324226
0.00737059
0.0029673
0.00734821
0.0031627
0.00732915
0.00295158
0.00731263
0.0034044
0.00729556
0.00307551
0.00727631
0.00365776
0.0072549
0.00299378
0.00722622
0.00361374
0.00719696
0.00238478
0.00714873
0.00285874
0.00710553
0.000712795
0.00700544
0.000803596
-0.003497
0.00750232
0.0264021
0.00747289
0.0213845
0.00747903
0.017175
0.00749945
0.0140292
0.00751817
0.0107754
0.00752021
0.00712838
0.00749685
0.00283091
0.0074477
-0.00166996
0.00737707
-0.00590974
0.0072941
-0.00947528
0.00721066
-0.0120327
0.0071432
-0.0134078
0.00710765
-0.0134116
0.00710831
-0.0122709
0.0071308
-0.0105191
0.00715593
-0.00893419
0.00717468
-0.00769964
0.00718856
-0.00689503
0.00720036
-0.00617374
0.00721193
-0.0056584
0.00722294
-0.00506334
0.00723383
-0.00466596
0.00724353
-0.00408734
0.00725293
-0.00380311
0.00726066
-0.00321988
0.00726819
-0.00303474
0.00727364
-0.00242038
0.00727928
-0.00235442
0.00728238
-0.00165738
0.00728636
-0.00177502
0.00728724
-0.000944792
0.00729
-0.00127498
0.00728878
-0.000234575
0.00729074
-0.000866806
0.00728729
0.000476465
0.00728859
-0.000544647
0.00728227
0.00124038
0.00728292
-0.000338497
0.00727258
0.00205703
0.00727086
-0.000270439
0.00725215
0.00269551
0.00724427
-0.000942617
0.00721543
0.00210783
0.00720589
-0.00349692
0.0071788
-0.000642925
0.00718715
-0.00766366
0.00719376
-0.00341342
0.00725678
-0.00798594
0.0073175
0.00114644
0.00740198
0.00301145
0.00746014
0.0135457
0.00756227
0.0349391
0.00766074
0.061794
0.00775222
-0.0184696
0.00776353
-0.0495511
0.00781469
-0.0313489
0.00784687
-0.00872503
0.00788658
-0.00387534
0.00790222
0.00704013
0.00789586
0.00571936
0.00786445
0.00898469
0.00781624
0.00381747
0.0077679
0.00449068
0.00771965
0.000474703
0.00768426
0.00147916
0.00764641
-0.00107061
0.00761651
-9.95545e-05
0.00757703
-0.00174439
0.00754201
-0.000805329
0.00749968
-0.0016804
0.00746852
-0.000706782
0.00744307
-0.000952733
0.00744017
9.38313e-05
0.00745218
0.00037733
0.00748474
0.00156791
0.00752348
0.0022209
0.00756425
0.00334023
0.00759301
0.00393939
0.00760692
0.0045735
0.00760288
0.0047231
0.00758483
0.00474906
0.00755644
0.00450354
0.00752156
0.0041364
0.00748399
0.00380976
0.00744604
0.00338801
0.00741146
0.00327685
0.00738093
0.00299783
0.0073567
0.00318694
0.00733606
0.00297222
0.00731875
0.00342171
0.00730112
0.00309314
0.00728201
0.00367687
0.00726062
0.00301517
0.00723255
0.00364181
0.00720351
0.00241382
0.00715602
0.00290622
0.00711295
0.000755861
0.00701324
0.000903313
-0.0033968
0.00750288
0.026475
0.00747443
0.021413
0.00748188
0.0171675
0.00750371
0.0140074
0.0075237
0.0107554
0.00752669
0.00712539
0.00750379
0.00285381
0.00745455
-0.00162072
0.00738327
-0.00583846
0.0072991
-0.00939111
0.0072139
-0.0119475
0.00714412
-0.0133381
0.00710606
-0.0133736
0.00710477
-0.0122696
0.00712641
-0.0105408
0.00715153
-0.00895931