/*--------------------------------*- C++ -*----------------------------------*\
| =========                 |                                                 |
| \\      /  F ield         | OpenFOAM: The Open Source CFD Toolbox           |
|  \\    /   O peration     | Version:  2412                                  |
|   \\  /    A nd           | Website:  www.openfoam.com                      |
|    \\/     M anipulation  |                                                 |
\*---------------------------------------------------------------------------*/
FoamFile
{
    version     2.0;
    format      ascii;
    arch        "LSB;label=32;scalar=64";
    class       volVectorField;
    location    "0.6";
    object      U;
}
// * * * * * * * * * * * * * * * * * * * * * * * * * * * * * * * * * * * * * //

dimensions      [0 1 -1 0 0 0 0];

internalField   nonuniform List<vector> 
13077
(
(100.035 -1.83921 0)
(100.688 -4.9915 8.24603e-17)
(101.864 -7.77798 -7.68991e-17)
(103.43 -10.1178 0)
(105.084 -12.6741 0)
(106.753 -15.6295 0)
(108.173 -19.0355 0)
(109.388 -22.5415 0)
(110.354 -25.7959 0)
(111.217 -28.5005 -9.3586e-17)
(112.104 -30.4415 0)
(113.244 -31.5032 0)
(114.904 -31.643 0)
(117.163 -31.144 -9.56352e-17)
(119.86 -30.4735 0)
(122.616 -30.0826 0)
(125.395 -29.9893 7.03815e-17)
(128.151 -30.1477 6.59085e-17)
(131.07 -30.3791 2.77072e-21)
(134.032 -30.7451 6.05964e-17)
(137.228 -31.1107 0)
(140.443 -31.62 5.67594e-17)
(143.953 -32.0862 -5.50186e-17)
(147.439 -32.7295 -5.31418e-17)
(151.307 -33.2801 0)
(155.09 -34.0659 0)
(159.383 -34.693 -4.79221e-17)
(163.497 -35.6438 4.59942e-17)
(168.308 -36.3433 3.05563e-21)
(172.794 -37.4935 8.49178e-17)
(178.245 -38.2625 0)
(183.156 -39.66 0)
(189.418 -40.4892 0)
(194.805 -42.1932 3.54022e-17)
(202.103 -43.068 -3.42136e-17)
(208.013 -45.1557 0)
(216.643 -46.0637 3.07899e-17)
(223.113 -48.6344 0)
(233.477 -49.5825 -2.72979e-17)
(100.035 -1.85764 0)
(100.698 -5.03814 1.24171e-20)
(101.886 -7.84892 7.6862e-17)
(103.47 -10.2022 -7.26988e-17)
(105.14 -12.7632 0)
(106.824 -15.7146 0)
(108.252 -19.1107 0)
(109.467 -22.6056 -8.0241e-17)
(110.427 -25.8501 0)
(111.274 -28.5491 9.37099e-17)
(112.137 -30.4907 0)
(113.245 -31.5613 1.03637e-16)
(114.869 -31.7164 0)
(117.102 -31.2319 -2.87302e-21)
(119.789 -30.568 0)
(122.547 -30.1769 0)
(125.328 -30.0819 7.0852e-17)
(128.082 -30.2404 0)
(130.999 -30.473 -6.32607e-17)
(133.958 -30.841 2.99577e-21)
(137.152 -31.2083 0)
(140.364 -31.7199 -5.69858e-17)
(143.871 -32.1878 -2.85252e-21)
(147.355 -32.8334 0)
(151.221 -33.3858 0)
(155.002 -34.1745 0)
(159.293 -34.8034 -4.80675e-17)
(163.405 -35.7575 0)
(168.212 -36.459 -4.4565e-17)
(172.697 -37.6132 -4.25832e-17)
(178.145 -38.3843 -4.11321e-17)
(183.053 -39.787 3.90702e-17)
(189.312 -40.6185 3.77462e-17)
(194.697 -42.3289 -3.55312e-17)
(201.992 -43.2059 0)
(207.9 -45.3015 3.19183e-17)
(216.528 -46.2115 -6.18761e-17)
(222.995 -48.792 -2.81836e-17)
(233.359 -49.7415 5.4918e-17)
(240.382 -52.9559 -6.89236e-21)
(252.958 -54.0877 0)
(260.456 -58.2862 1.9798e-17)
(275.991 -60.0724 0)
(284.217 -65.729 3.10715e-17)
(304.26 -68.6484 -3.44952e-17)
(314.292 -75.5514 1.16437e-17)
(341.573 -79.1205 -5.50667e-21)
(355.843 -85.2609 0)
(393.811 -88.1298 0)
(412.895 -91.3944 5.91568e-19)
(461.864 -96.0484 -6.86081e-18)
(489.144 -87.9144 0)
(557.105 -93.8539 -1.5558e-18)
(611.055 -2.11469 0)
(567.183 45.8068 -3.74268e-18)
(551.295 59.2415 1.81424e-17)
(512.116 67.7669 2.0622e-18)
(494.648 68.4263 1.41194e-17)
(461.531 70.5741 8.90018e-18)
(444.051 67.0654 5.46938e-18)
(415.433 64.9168 1.93404e-17)
(398.93 59.1317 0)
(375.623 56.2833 3.85374e-17)
(361.905 51.743 3.58436e-17)
(343.967 49.9594 0)
(332.587 46.6547 -7.17632e-17)
(318.205 45.3077 -1.03491e-16)
(308.07 42.7158 0)
(296.063 41.6558 6.62163e-21)
(100.036 -1.87634 0)
(100.707 -5.08535 -1.64669e-16)
(101.908 -7.92071 -7.68023e-17)
(103.51 -10.2877 7.2666e-17)
(105.197 -12.8533 0)
(106.896 -15.8004 0)
(108.332 -19.1865 -7.51063e-17)
(109.549 -22.67 8.03047e-17)
(110.501 -25.9042 0)
(111.334 -28.5973 0)
(112.173 -30.539 0)
(113.247 -31.6183 -1.03942e-16)
(114.836 -31.7887 1.03038e-16)
(117.041 -31.3191 9.67492e-17)
(119.718 -30.6622 0)
(122.477 -30.2711 0)
(125.26 -30.1744 -7.13598e-17)
(128.014 -30.3329 0)
(130.927 -30.5668 0)
(133.884 -30.9367 3.01944e-21)
(137.075 -31.3058 5.92059e-17)
(140.285 -31.8195 5.72405e-17)
(143.79 -32.2892 5.54464e-17)
(147.272 -32.9373 0)
(151.135 -33.4914 0)
(154.914 -34.2829 0)
(159.202 -34.9136 -3.01658e-21)
(163.312 -35.8711 0)
(168.117 -36.5746 4.47066e-17)
(172.6 -37.7329 0)
(178.045 -38.5062 4.12629e-17)
(182.951 -39.914 4.55317e-21)
(189.208 -40.7477 -3.78809e-17)
(194.59 -42.4646 0)
(201.883 -43.3438 3.45023e-17)
(207.788 -45.4474 -3.20656e-17)
(216.415 -46.3594 3.10955e-17)
(222.879 -48.9498 5.66905e-17)
(233.242 -49.9007 -2.76303e-17)
(240.263 -53.1266 2.43286e-17)
(252.84 -54.2587 -2.39324e-17)
(260.33 -58.4706 1.99833e-17)
(275.861 -60.2571 2.03042e-17)
(284.061 -65.9305 -1.57112e-17)
(304.082 -68.8538 -2.93937e-21)
(314.053 -75.7782 -1.18206e-17)
(341.296 -79.3617 1.59559e-17)
(355.494 -85.5311 -7.17241e-18)
(393.504 -88.4292 -1.33522e-17)
(412.63 -91.7319 -6.0631e-19)
(461.702 -96.4374 7.00383e-18)
(488.98 -88.3536 0)
(557.201 -94.4405 1.5638e-18)
(611.298 -2.15316 0)
(567.049 46.0463 -2.59958e-20)
(551.078 59.4732 5.72777e-21)
(512.003 68.0257 2.09354e-18)
(494.715 68.7047 0)
(461.795 70.8836 0)
(444.484 67.3982 0)
(415.988 65.2624 0)
(399.53 59.4747 -9.70612e-18)
(376.202 56.6041 -3.91233e-17)
(362.419 52.0402 0)
(344.401 50.2251 0)
(332.942 46.9025 0)
(318.482 45.5311 1.06278e-16)
(308.267 42.9256 0)
(296.166 41.8405 -1.46661e-16)
(287.029 39.9315 0)
(277.095 39.242 -1.82477e-16)
(269.472 38.0399 -1.90745e-16)
(261.736 37.768 0)
(255.551 37.1391 -1.96235e-16)
(249.121 37.0747 0)
(243.281 36.6322 0)
(236.968 36.3992 0)
(230.916 35.7991 1.2838e-16)
(224.625 35.2174 -1.15215e-16)
(218.644 34.3687 -1.06275e-16)
(212.642 33.4622 1.00975e-16)
(207.012 32.4552 9.77822e-17)
(201.487 31.4047 0)
(196.402 30.4644 9.37251e-17)
(191.475 29.4988 9.12575e-17)
(187.035 28.8203 0)
(182.682 28.0348 -8.45211e-17)
(178.802 27.6397 -8.08642e-17)
(174.802 26.9393 7.72278e-17)
(171.289 26.7268 7.42403e-17)
(167.394 25.9443 7.14912e-17)
(164.16 25.8295 0)
(160.18 24.8143 3.52708e-22)
(157.281 24.7402 -6.73937e-17)
(152.964 23.3166 0)
(150.593 23.1535 0)
(145.386 21.0568 0)
(143.971 20.5301 0)
(136.399 16.6929 -7.33197e-17)
(100.038 -1.89532 0)
(100.717 -5.13314 8.22673e-17)
(101.931 -7.99333 7.67643e-17)
(103.552 -10.3741 7.26498e-17)
(105.255 -12.9444 0)
(106.969 -15.8872 7.17966e-17)
(108.413 -19.263 7.51478e-17)
(109.632 -22.7347 -8.03771e-17)
(110.578 -25.9584 -8.68888e-17)
(111.395 -28.6451 0)
(112.21 -30.5867 -1.00409e-16)
(113.252 -31.6742 0)
(114.804 -31.8599 -2.07018e-16)
(116.981 -31.4055 0)
(119.647 -30.756 0)
(122.407 -30.3651 -7.88286e-17)
(125.192 -30.2667 0)
(127.945 -30.4252 0)
(130.856 -30.6603 6.40342e-17)
(133.81 -31.0322 -6.1555e-17)
(136.998 -31.4031 -5.95126e-17)
(140.207 -31.9191 3.17533e-21)
(143.709 -32.3905 5.56956e-17)
(147.189 -33.041 0)
(151.05 -33.5969 -5.20055e-17)
(154.827 -34.3912 0)
(159.112 -35.0238 4.83863e-17)
(163.22 -35.9846 0)
(168.023 -36.6901 -4.48528e-17)
(172.503 -37.8525 0)
(177.946 -38.628 0)
(182.849 -40.041 -3.93458e-17)
(189.104 -40.877 0)
(194.484 -42.6003 0)
(201.775 -43.4817 -3.46554e-17)
(207.678 -45.5933 3.22336e-17)
(216.303 -46.5075 0)
(222.764 -49.1077 6.40719e-21)
(233.127 -50.0602 2.78175e-17)
(240.146 -53.2977 0)
(252.724 -54.43 2.41248e-17)
(260.208 -58.6554 -2.01649e-17)
(275.734 -60.4421 -4.10166e-17)
(283.908 -66.1323 0)
(303.907 -69.0591 -3.1436e-21)
(313.816 -76.0044 1.20276e-17)
(341.019 -79.6018 1.6261e-17)
(355.141 -85.7997 1.4681e-17)
(393.192 -88.7275 1.36923e-17)
(412.36 -92.0691 0)
(461.541 -96.8271 0)
(488.817 -88.7944 -8.53477e-18)
(557.298 -95.0292 0)
(611.533 -2.1907 1.18821e-18)
(566.896 46.2852 1.96838e-18)
(550.839 59.7015 5.79497e-21)
(511.87 68.2801 -8.28289e-21)
(494.77 68.9795 -1.47667e-17)
(462.057 71.191 0)
(444.922 67.7305 5.65219e-18)
(416.554 65.609 1.99879e-17)
(400.146 59.8205 -1.80708e-20)
(376.805 56.9292 -3.96584e-17)
(362.962 52.3428 -3.69783e-17)
(344.866 50.4966 -7.0095e-17)
(333.331 47.1565 0)
(318.795 45.7607 0)
(308.501 43.1422 0)
(296.307 42.0321 0)
(287.064 40.1033 0)
(277.013 39.3824 -6.43275e-21)
(269.286 38.1559 -1.79266e-20)
(261.489 37.861 0)
(255.31 37.2273 2.1321e-16)
(248.957 37.171 0)
(243.233 36.7489 1.86159e-16)
(237.03 36.5359 0)
(231.053 35.9507 1.43894e-16)
(224.804 35.3773 1.28325e-16)
(218.84 34.5315 1.17466e-16)
(212.838 33.6241 -1.10836e-16)
(207.194 32.6127 -1.06794e-16)
(201.645 31.5554 -1.04188e-16)
(196.528 30.606 -2.03736e-16)
(191.567 29.6303 -9.90674e-17)
(187.095 28.9419 0)
(182.716 28.1481 9.14071e-17)
(178.821 27.7476 4.88693e-21)
(174.814 27.044 -8.28463e-17)
(171.301 26.8311 -7.92324e-17)
(167.409 26.0481 -7.59288e-17)
(164.181 25.9359 0)
(160.206 24.9201 4.00915e-22)
(157.314 24.8518 7.06646e-17)
(153.001 23.4253 -6.95793e-17)
(150.636 23.2754 7.0292e-17)
(145.423 21.1694 0)
(144.017 20.6778 0)
(136.391 16.8206 7.59829e-17)
(100.039 -1.91459 0)
(100.727 -5.18151 8.22182e-17)
(101.955 -8.06682 -1.53418e-16)
(103.593 -10.4616 -7.26167e-17)
(105.313 -13.0364 -7.09718e-17)
(107.043 -15.9747 -7.1817e-17)
(108.496 -19.34 0)
(109.717 -22.7996 8.04432e-17)
(110.656 -26.0125 8.69785e-17)
(111.459 -28.6926 0)
(112.25 -30.6335 1.0061e-16)
(113.259 -31.7291 0)
(114.773 -31.93 2.08004e-16)
(116.921 -31.4911 0)
(119.575 -30.8495 0)
(122.336 -30.459 -3.33894e-21)
(125.124 -30.3589 0)
(127.876 -30.5174 -6.77235e-17)
(130.784 -30.7536 -6.44731e-17)
(133.736 -31.1276 0)
(136.922 -31.5002 0)
(140.128 -32.0184 -5.78148e-17)
(143.628 -32.4916 2.95542e-21)
(147.105 -33.1446 5.39962e-17)
(150.964 -33.7023 1.04443e-16)
(154.739 -34.4994 0)
(159.023 -35.1339 0)
(163.128 -36.098 0)
(167.928 -36.8055 4.50166e-17)
(172.406 -37.9721 -4.30243e-17)
(177.847 -38.7497 4.15628e-17)
(182.748 -40.1679 3.95048e-17)
(189 -41.0062 -3.81876e-17)
(194.379 -42.736 3.59912e-17)
(201.667 -43.6198 0)
(207.568 -45.7394 -3.24001e-17)
(216.192 -46.6556 3.14474e-17)
(222.651 -49.2658 -2.87024e-17)
(233.014 -50.2199 -5.60215e-17)
(240.031 -53.4692 -2.47192e-17)
(252.61 -54.6017 0)
(260.088 -58.8406 0)
(275.61 -60.6275 -3.13348e-21)
(283.758 -66.3342 1.61121e-17)
(303.736 -69.2644 -3.32694e-21)
(313.581 -76.23 -2.44634e-17)
(340.742 -79.8409 -1.65713e-17)
(354.785 -86.0669 -7.51805e-18)
(392.874 -89.0248 0)
(412.086 -92.4057 0)
(461.38 -97.2176 0)
(488.657 -89.2367 8.66068e-18)
(557.395 -95.6198 0)
(611.76 -2.22722 -1.19844e-18)
(566.725 46.5235 0)
(550.576 59.9263 5.83878e-21)
(511.718 68.5301 -4.36577e-18)
(494.814 69.2507 1.51243e-17)
(462.316 71.4958 0)
(445.365 68.0618 -8.78667e-21)
(417.131 65.9562 -2.03126e-17)
(400.777 60.1685 9.99552e-18)
(377.428 57.2578 8.0272e-17)
(363.529 52.6503 7.48093e-17)
(345.362 50.7736 7.09481e-17)
(333.751 47.4164 7.57422e-17)
(319.142 45.9964 0)
(308.771 43.3654 0)
(296.486 42.2306 -1.54861e-16)
(287.138 40.2828 0)
(276.969 39.5299 -7.89394e-21)
(269.131 38.2777 2.11257e-16)
(261.257 37.9565 0)
(255.066 37.3142 -2.29403e-16)
(248.777 37.2628 0)
(243.167 36.8608 -2.0662e-16)
(237.085 36.6697 0)
(231.197 36.1021 -4.14674e-21)
(224.999 35.5389 1.4315e-16)
(219.057 34.6973 0)
(213.057 33.7897 1.21974e-16)
(207.4 32.7744 1.16923e-16)
(201.827 31.7104 1.137e-16)
(196.677 30.7518 1.1098e-16)
(191.679 29.7657 3.49401e-21)
(187.171 29.0668 1.03939e-16)
(182.764 28.264 -9.91994e-17)
(178.85 27.8574 9.42587e-17)
(174.835 27.15 1.78489e-16)
(171.32 26.9363 5.03334e-21)
(167.432 26.1528 8.09668e-17)
(164.208 26.043 0)
(160.24 25.0268 7.55599e-17)
(157.353 24.9642 0)
(153.045 23.535 7.29663e-17)
(150.688 23.3984 -7.34906e-17)
(145.469 21.2834 0)
(144.074 20.8274 0)
(136.393 16.951 0)
(100.04 -1.93415 0)
(100.737 -5.23049 -1.64299e-16)
(101.978 -8.14118 1.53318e-16)
(103.636 -10.55 0)
(105.373 -13.1294 7.09672e-17)
(107.118 -16.0631 0)
(108.581 -19.4176 7.52487e-17)
(109.804 -22.8649 8.05186e-17)
(110.737 -26.0665 0)
(111.525 -28.7396 0)
(112.292 -30.6797 -1.00819e-16)
(113.268 -31.783 -1.04926e-16)
(114.745 -31.9991 -1.04517e-16)
(116.862 -31.5759 9.86881e-17)
(119.503 -30.9426 -8.94938e-17)
(122.265 -30.5528 1.60518e-16)
(125.054 -30.451 0)
(127.806 -30.6094 6.82842e-17)
(130.713 -30.8468 -6.496e-17)
(133.662 -31.2228 -6.23644e-17)
(136.845 -31.5972 0)
(140.049 -32.1177 0)
(143.547 -32.5927 3.00812e-21)
(147.022 -33.2481 -1.08517e-16)
(150.879 -33.8076 3.06599e-21)
(154.652 -34.6075 0)
(158.933 -35.2439 -4.87675e-17)
(163.037 -36.2114 0)
(167.835 -36.9209 -4.51864e-17)
(172.311 -38.0917 4.31874e-17)
(177.749 -38.8714 -4.17237e-17)
(182.648 -40.2949 -3.96647e-17)
(188.898 -41.1355 -3.36999e-21)
(194.274 -42.8718 -3.61572e-17)
(201.561 -43.7579 0)
(207.46 -45.8856 3.25887e-17)
(216.082 -46.804 -6.32722e-17)
(222.539 -49.4242 0)
(232.902 -50.38 2.82158e-17)
(239.918 -53.641 2.49213e-17)
(252.499 -54.7739 0)
(259.971 -59.0263 0)
(275.489 -60.8133 -3.26049e-21)
(283.611 -66.5363 8.59156e-21)
(303.567 -69.4695 1.82083e-17)
(313.348 -76.4551 -1.04955e-20)
(340.466 -80.0791 -1.69121e-17)
(354.425 -86.3325 0)
(392.551 -89.321 1.44739e-17)
(411.806 -92.7419 5.88863e-19)
(461.22 -97.6087 0)
(488.498 -89.6806 0)
(557.493 -96.2124 1.59159e-18)
(611.98 -2.26263 -1.21791e-18)
(566.536 46.7613 0)
(550.29 60.1474 -1.98267e-17)
(511.544 68.7753 8.85908e-21)
(494.843 69.5177 0)
(462.571 71.7978 9.67127e-18)
(445.809 68.3919 -9.07922e-21)
(417.715 66.3036 0)
(401.421 60.5184 -1.01614e-17)
(378.07 57.5898 -4.05687e-17)
(364.119 52.9623 -3.7764e-17)
(345.884 51.0558 7.16394e-17)
(334.201 47.682 -7.65128e-17)
(319.521 46.238 1.11721e-16)
(309.075 43.5951 1.23312e-16)
(296.703 42.436 3.154e-16)
(287.252 40.4699 0)
(276.964 39.6849 2.04262e-16)
(269.009 38.4061 0)
(261.047 38.0558 0)
(254.825 37.4012 0)
(248.585 37.3509 0)
(243.084 36.9678 2.27491e-16)
(237.13 36.7998 -2.05422e-16)
(231.344 36.2526 -3.60923e-16)
(225.209 35.7019 -3.19523e-16)
(219.295 34.866 0)
(213.301 33.959 1.34453e-16)
(207.632 32.9404 0)
(202.036 31.87 0)
(196.851 30.9022 0)
(191.814 29.9053 2.35235e-16)
(187.266 29.1953 -4.62479e-21)
(182.827 28.3829 2.15986e-16)
(178.891 27.9693 0)
(174.865 27.2576 -1.93021e-16)
(171.346 27.0427 9.13758e-17)
(167.461 26.2584 0)
(164.242 26.151 0)
(160.279 25.1343 8.0088e-17)
(157.4 25.0774 0)
(153.096 23.6457 0)
(150.747 23.5224 0)
(145.523 21.3987 0)
(144.139 20.979 0)
(136.406 17.084 0)
(100.041 -1.95401 0)
(100.748 -5.28008 8.20797e-17)
(102.003 -8.21644 -7.66031e-17)
(103.679 -10.6395 0)
(105.433 -13.2234 0)
(107.195 -16.1525 0)
(108.667 -19.4958 -1.50592e-16)
(109.892 -22.9305 3.94195e-21)
(110.819 -26.1205 0)
(111.593 -28.7863 0)
(112.336 -30.7251 1.01031e-16)
(113.279 -31.8359 1.05274e-16)
(114.718 -32.0671 0)
(116.803 -31.66 -9.94084e-17)
(119.431 -31.0353 9.031e-17)
(122.192 -30.6465 3.45947e-21)
(124.985 -30.543 0)
(127.737 -30.7012 -6.89038e-17)
(130.641 -30.9398 6.54872e-17)
(133.587 -31.3178 -3.24355e-21)
(136.768 -31.6941 6.06342e-17)
(139.97 -32.2168 0)
(143.466 -32.6936 -1.13161e-16)
(146.939 -33.3514 5.45448e-17)
(150.794 -33.9128 -5.27153e-17)
(154.565 -34.7155 5.07104e-17)
(158.844 -35.3538 9.79582e-17)
(162.946 -36.3247 0)
(167.741 -37.0363 0)
(172.215 -38.2112 0)
(177.651 -38.9932 -4.19026e-17)
(182.548 -40.4218 3.98449e-17)
(188.796 -41.2648 3.85284e-17)
(194.17 -43.0076 3.63443e-17)
(201.455 -43.8961 0)
(207.352 -46.0319 -6.55591e-17)
(215.974 -46.9525 6.3676e-17)
(222.429 -49.5827 0)
(232.792 -50.5403 0)
(239.807 -53.8131 0)
(252.391 -54.9465 -2.47912e-17)
(259.858 -59.2125 0)
(275.372 -60.9996 -3.39147e-21)
(283.468 -66.7387 -1.65459e-17)
(303.402 -69.6746 0)
(313.117 -76.6795 1.26821e-17)
(340.19 -80.3162 1.72593e-17)
(354.061 -86.5966 -7.93478e-18)
(392.221 -89.6161 -2.97737e-17)
(411.521 -93.0773 -6.06236e-19)
(461.061 -98.0005 -7.76152e-18)
(488.341 -90.1259 0)
(557.591 -96.807 2.48597e-22)
(612.192 -2.29687 2.4647e-18)
(566.328 46.9986 -2.18748e-18)
(549.979 60.3648 2.03216e-17)
(511.348 69.0153 2.28285e-18)
(494.856 69.7803 0)
(462.819 72.0966 -9.89371e-18)
(446.254 68.7206 -5.96672e-18)
(418.307 66.6511 0)
(402.077 60.8701 2.05907e-17)
(378.729 57.9249 -4.09714e-17)
(364.731 53.2786 0)
(346.433 51.343 8.48621e-21)
(334.679 47.953 0)
(319.932 46.4853 1.16767e-20)
(309.411 43.831 -2.49167e-16)
(296.956 42.6482 1.26339e-20)
(287.404 40.6646 0)
(277.001 39.8477 0)
(268.926 38.5419 0)
(260.865 38.16 0)
(254.596 37.4897 0)
(248.386 37.4363 2.60477e-16)
(242.984 37.0699 -2.48149e-16)
(237.162 36.9255 2.27375e-16)
(231.491 36.4014 2.11515e-21)
(225.431 35.8657 1.78144e-16)
(219.554 35.0374 0)
(213.57 34.1322 -3.74995e-21)
(207.891 33.1109 1.40786e-16)
(202.271 32.0344 -1.35997e-16)
(197.052 31.0575 0)
(191.974 30.0497 -2.77399e-21)
(187.383 29.328 -1.23755e-16)
(182.908 28.5051 -2.91238e-21)
(178.945 28.0836 0)
(174.905 27.367 1.04753e-16)
(171.381 27.1503 9.87017e-17)
(167.497 26.3652 9.31561e-17)
(164.283 26.2598 0)
(160.326 25.2428 -3.7908e-22)
(157.454 25.1915 0)
(153.156 23.7574 8.09699e-17)
(150.815 23.6475 8.09702e-17)
(145.586 21.5153 8.05728e-17)
(144.215 21.1324 8.36378e-17)
(136.432 17.2198 8.56303e-17)
(100.042 -1.97418 0)
(100.759 -5.3303 8.20285e-17)
(102.027 -8.2926 -7.65637e-17)
(103.723 -10.7301 0)
(105.495 -13.3185 -7.09819e-17)
(107.273 -16.2427 0)
(108.754 -19.5746 7.53452e-17)
(109.983 -22.9964 -1.6133e-16)
(110.904 -26.1746 8.72725e-17)
(111.663 -28.8326 0)
(112.382 -30.7698 1.01252e-16)
(113.293 -31.8878 1.05638e-16)
(114.693 -32.134 0)
(116.746 -31.7432 -1.00177e-16)
(119.358 -31.1277 0)
(122.119 -30.74 3.52161e-21)
(124.915 -30.635 7.46798e-17)
(127.667 -30.7929 6.95738e-17)
(130.569 -31.0326 -6.60708e-17)
(133.513 -31.4126 -3.31325e-21)
(136.691 -31.7908 -1.22158e-16)
(139.891 -32.3158 0)
(143.385 -32.7944 -3.12382e-21)
(146.857 -33.4547 0)
(150.709 -34.0179 0)
(154.478 -34.8234 -5.09606e-17)
(158.755 -35.4637 -4.92086e-17)
(162.855 -36.438 0)
(167.648 -37.1516 0)
(172.121 -38.3307 0)
(177.554 -39.1149 -3.37352e-21)
(182.449 -40.5488 -4.00273e-17)
(188.695 -41.3942 0)
(194.068 -43.1435 -3.6532e-17)
(201.351 -44.0344 0)
(207.246 -46.1784 6.59699e-17)
(215.867 -47.1012 -6.41041e-17)
(222.321 -49.7415 0)
(232.684 -50.7009 -2.86714e-17)
(239.698 -53.9857 2.53858e-17)
(252.285 -55.1196 2.5036e-17)
(259.747 -59.3992 2.1053e-17)
(275.259 -61.1863 2.14654e-17)
(283.329 -66.9414 1.67963e-17)
(303.241 -69.8796 -1.8786e-17)
(312.889 -76.9035 0)
(339.916 -80.5524 0)
(353.694 -86.8591 -1.59821e-20)
(391.884 -89.91 -1.34433e-20)
(411.23 -93.412 0)
(460.901 -98.393 7.96824e-18)
(488.186 -90.5728 0)
(557.689 -97.4035 -1.6149e-18)
(612.397 -2.32983 -1.24795e-18)
(566.101 47.2354 -2.93592e-20)
(549.642 60.5783 5.86164e-21)
(511.128 69.2501 -2.32518e-18)
(494.852 70.038 -1.62974e-17)
(463.059 72.3919 0)
(446.699 69.0475 0)
(418.905 66.9983 0)
(402.743 61.2233 2.01577e-20)
(379.404 58.263 4.13312e-17)
(365.363 53.599 0)
(347.006 51.6349 -7.25646e-17)
(335.184 48.2292 0)
(320.371 46.7382 -2.26723e-16)
(309.78 44.0729 -3.35156e-20)
(297.244 42.8671 -3.22526e-16)
(287.595 40.8668 0)
(277.078 40.0184 2.12657e-16)
(268.883 38.6855 0)
(260.717 38.2703 -2.57845e-16)
(254.386 37.5812 -2.69481e-16)
(248.186 37.5201 -5.52787e-16)
(242.869 37.1675 0)
(237.179 37.0463 0)
(231.634 36.5476 4.46543e-16)
(225.663 36.0297 0)
(219.833 35.2114 1.77801e-16)
(213.865 34.3093 -3.27554e-16)
(208.179 33.286 -1.54657e-16)
(202.537 32.204 1.48897e-16)
(197.281 31.2182 0)
(192.161 30.1994 -2.8086e-16)
(187.524 29.4654 -1.35337e-16)
(183.009 28.6313 -2.57813e-16)
(179.015 28.201 -1.2171e-16)
(174.958 27.4787 0)
(171.427 27.2595 -1.07025e-16)
(167.543 26.4732 -1.00508e-16)
(164.332 26.3697 0)
(160.382 25.3524 -1.81899e-16)
(157.516 25.3065 0)
(153.224 23.8704 -8.56897e-17)
(150.892 23.7738 -1.70721e-16)
(145.659 21.6334 -8.47221e-17)
(144.301 21.2879 -8.76049e-17)
(136.47 17.3586 -8.94835e-17)
(100.043 -1.99467 0)
(100.77 -5.38116 1.30334e-20)
(102.053 -8.36969 7.65011e-17)
(103.768 -10.8217 7.25268e-17)
(105.557 -13.4146 7.09789e-17)
(107.352 -16.3338 0)
(108.844 -19.6542 0)
(110.075 -23.0627 8.07404e-17)
(110.99 -26.2287 -8.73713e-17)
(111.735 -28.8787 0)
(112.432 -30.8139 -1.01476e-16)
(113.309 -31.9387 -1.06013e-16)
(114.67 -32.1999 0)
(116.689 -31.8257 -2.83426e-21)
(119.285 -31.2196 0)
(122.046 -30.8334 -1.65733e-16)
(124.844 -30.7268 -7.55239e-17)
(127.596 -30.8845 0)
(130.497 -31.1253 -3.19097e-21)
(133.438 -31.5073 1.27773e-16)
(136.614 -31.8873 -3.1618e-21)
(139.812 -32.4146 0)
(143.304 -32.895 5.73171e-17)
(146.774 -33.5579 -5.52066e-17)
(150.624 -34.1229 0)
(154.392 -34.9313 -5.12406e-17)
(158.667 -35.5735 0)
(162.765 -36.5512 -4.74305e-17)
(167.556 -37.2669 4.57926e-17)
(172.026 -38.4502 -4.37703e-17)
(177.458 -39.2366 -3.42186e-21)
(182.351 -40.6758 4.02316e-17)
(188.595 -41.5236 -3.89215e-17)
(193.966 -43.2795 0)
(201.247 -44.1728 0)
(207.142 -46.325 -3.31994e-17)
(215.761 -47.2501 3.22769e-17)
(222.214 -49.9006 2.95685e-17)
(232.578 -50.8619 2.89139e-17)
(239.591 -54.1587 -5.12617e-17)
(252.181 -55.2932 2.53033e-17)
(259.639 -59.5864 -2.12989e-17)
(275.149 -61.3735 0)
(283.194 -67.1444 -3.40959e-17)
(303.083 -70.0847 -4.0196e-21)
(312.663 -77.1269 1.32043e-17)
(339.642 -80.7876 0)
(353.324 -87.1201 1.67489e-17)
(391.541 -90.2026 1.57941e-17)
(410.932 -93.7459 0)
(460.741 -98.7861 0)
(488.032 -91.0212 0)
(557.788 -98.0019 0)
(612.595 -2.36143 0)
(565.855 47.4717 -3.01418e-20)
(549.28 60.7878 -2.13783e-17)
(510.882 69.4792 4.76805e-18)
(494.829 70.2906 4.31887e-21)
(463.289 72.6833 0)
(447.142 69.3723 0)
(419.507 67.3452 2.16215e-17)
(403.418 61.5777 -1.05657e-17)
(380.094 58.6037 0)
(366.015 53.9231 -3.86098e-17)
(347.603 51.9314 0)
(335.714 48.5104 -7.78325e-17)
(320.839 46.9963 -1.26728e-20)
(310.178 44.3206 1.25944e-16)
(297.565 43.0923 3.24326e-16)
(287.823 41.0762 -1.80484e-16)
(277.196 40.197 -4.30474e-16)
(268.882 38.8373 0)
(260.606 38.3875 2.64507e-16)
(254.201 37.6768 5.58561e-16)
(247.992 37.6038 -1.70132e-21)
(242.743 37.2613 2.86415e-16)
(237.18 37.1618 2.7156e-16)
(231.769 36.6903 -4.9222e-16)
(225.901 36.1932 2.19704e-16)
(220.129 35.3874 -1.23647e-21)
(214.184 34.4901 2.21329e-21)
(208.495 33.466 -1.6986e-16)
(202.833 32.3791 -1.62995e-16)
(197.542 31.3845 1.58114e-16)
(192.378 30.3547 3.07033e-16)
(187.692 29.608 1.48095e-16)
(183.133 28.762 1.41162e-16)
(179.104 28.3217 1.33215e-16)
(175.026 27.593 -1.24595e-16)
(171.484 27.3706 1.16437e-16)
(167.598 26.5828 -1.08839e-16)
(164.39 26.4807 1.02738e-16)
(160.445 25.4632 1.94895e-16)
(157.587 25.4226 0)
(153.301 23.9845 0)
(150.979 23.9013 9.02499e-17)
(145.742 21.7532 0)
(144.399 21.4454 0)
(136.521 17.5005 0)
(100.045 -2.01548 0)
(100.781 -5.43266 -8.1885e-17)
(102.078 -8.44772 -7.64613e-17)
(103.814 -10.9144 -7.24939e-17)
(105.621 -13.5117 7.09919e-17)
(107.432 -16.4259 0)
(108.934 -19.7344 0)
(110.169 -23.1294 0)
(111.079 -26.2828 -8.74793e-17)
(111.81 -28.9244 -9.47965e-17)
(112.483 -30.8573 1.01711e-16)
(113.329 -31.9886 -1.06405e-16)
(114.65 -32.2647 0)
(116.634 -31.9072 1.01844e-16)
(119.212 -31.3111 0)
(121.972 -30.9266 8.38748e-17)
(124.773 -30.8184 -7.64483e-17)
(127.526 -30.9759 7.11157e-17)
(130.424 -31.2178 1.34801e-16)
(133.364 -31.6019 3.46712e-21)
(136.537 -31.9837 6.21025e-17)
(139.733 -32.5133 0)
(143.223 -32.9956 5.7742e-17)
(146.691 -33.6609 5.55782e-17)
(150.54 -34.2279 5.36416e-17)
(154.306 -35.0391 5.1537e-17)
(158.579 -35.6832 0)
(162.675 -36.6644 4.76759e-17)
(167.464 -37.3822 -4.60219e-17)
(171.933 -38.5696 -4.49871e-21)
(177.362 -39.3584 4.25027e-17)
(182.254 -40.8028 -8.08835e-17)
(188.495 -41.6531 -3.57034e-21)
(193.865 -43.4156 0)
(201.145 -44.3114 0)
(207.038 -46.4718 3.34359e-17)
(215.657 -47.3993 0)
(222.109 -50.06 -5.96245e-17)
(232.474 -51.0233 -2.91784e-17)
(239.487 -54.3322 2.58903e-17)
(252.081 -55.4673 -2.55786e-17)
(259.535 -59.7742 0)
(275.043 -61.5612 2.20415e-17)
(283.062 -67.3478 3.46391e-17)
(302.93 -70.2898 1.94276e-17)
(312.44 -77.3499 1.17999e-20)
(339.37 -81.0219 0)
(352.951 -87.3795 -8.60854e-18)
(391.192 -90.4939 1.63053e-17)
(410.626 -94.0788 0)
(460.58 -99.1798 0)
(487.881 -91.471 0)
(557.888 -98.6023 -1.6436e-18)
(612.787 -2.39159 0)
(565.59 47.7077 2.3863e-18)
(548.89 60.9932 0)
(510.608 69.7023 -2.44566e-18)
(494.784 70.5377 1.71855e-17)
(463.508 72.9704 0)
(447.581 69.6948 0)
(420.113 67.6913 -2.19592e-17)
(404.102 61.9332 0)
(380.798 58.9469 0)
(366.683 54.2509 3.8783e-17)
(348.221 52.2322 7.30765e-17)
(336.269 48.7963 7.79547e-17)
(321.333 47.2595 1.13908e-16)
(310.605 44.5738 0)
(297.918 43.3237 -1.62588e-16)
(288.087 41.2926 1.81273e-16)
(277.354 40.3834 2.16914e-16)
(268.924 38.9972 2.38781e-16)
(260.535 38.5121 0)
(254.046 37.7777 -2.87237e-16)
(247.812 37.6888 -2.85057e-21)
(242.611 37.3523 -3.03005e-16)
(237.165 37.2722 -2.92505e-16)
(231.892 36.8289 -2.05038e-21)
(226.142 36.3553 -4.84676e-16)
(220.441 35.5648 -4.35746e-23)
(214.528 34.6745 1.23288e-21)
(208.841 33.6508 1.86398e-16)
(203.161 32.5597 1.78293e-16)
(197.836 31.5569 -1.72695e-16)
(192.627 30.5162 -1.67713e-16)
(187.89 29.7563 0)
(183.283 28.8977 0)
(179.214 28.4465 1.46007e-16)
(175.11 27.7104 1.87457e-21)
(171.554 27.4838 -1.27076e-16)
(167.665 26.6942 1.24852e-21)
(164.459 26.5932 -1.11048e-16)
(160.519 25.5754 -1.04782e-16)
(157.668 25.54 0)
(153.388 24.1001 9.68882e-17)
(151.076 24.0302 0)
(145.837 21.8746 0)
(144.508 21.605 0)
(136.587 17.6455 0)
(100.046 -2.03663 0)
(100.793 -5.48484 0)
(102.104 -8.5267 1.52808e-16)
(103.86 -11.0081 0)
(105.686 -13.61 -7.09906e-17)
(107.514 -16.5189 0)
(109.027 -19.8153 0)
(110.265 -23.1965 8.09059e-17)
(111.169 -26.337 8.75841e-17)
(111.887 -28.9699 1.89895e-16)
(112.538 -30.9001 -1.0195e-16)
(113.351 -32.0377 1.06809e-16)
(114.632 -32.3284 -1.0749e-16)
(116.58 -31.988 0)
(119.14 -31.4022 0)
(121.897 -31.0196 0)
(124.701 -30.91 7.74452e-17)
(127.455 -31.0672 -1.43981e-16)
(130.352 -31.3101 -6.81603e-17)
(133.289 -31.6962 -6.5158e-17)
(136.46 -32.08 -6.26926e-17)
(139.654 -32.6119 0)
(143.142 -33.0961 -5.81998e-17)
(146.609 -33.7639 0)
(150.456 -34.3327 -5.4003e-17)
(154.22 -35.1469 0)
(158.491 -35.7929 0)
(162.585 -36.7775 0)
(167.373 -37.4974 4.62758e-17)
(171.84 -38.6891 4.42251e-17)
(177.267 -39.4801 0)
(182.157 -40.9299 4.06658e-17)
(188.397 -41.7826 7.8721e-17)
(193.765 -43.5518 -3.71904e-17)
(201.044 -44.4501 0)
(206.936 -46.6188 -6.73532e-17)
(215.555 -47.5487 0)
(222.005 -50.2197 6.01472e-17)
(232.372 -51.185 5.89045e-17)
(239.385 -54.5061 2.61771e-17)
(251.983 -55.642 2.58783e-17)
(259.434 -59.9626 0)
(274.941 -61.7495 3.967e-21)
(282.935 -67.5516 9.87005e-21)
(302.78 -70.4951 0)
(312.221 -77.5725 -2.75434e-17)
(339.099 -81.2553 0)
(352.575 -87.6372 0)
(390.836 -90.7839 -1.68167e-17)
(410.313 -94.4106 5.88543e-19)
(460.419 -99.574 0)
(487.73 -91.9224 0)
(557.989 -99.2047 -9.94284e-22)
(612.972 -2.4202 1.31387e-18)
(565.306 47.9434 0)
(548.472 61.1943 0)
(510.306 69.9192 2.4949e-18)
(494.717 70.7788 0)
(463.714 73.2528 -1.08528e-17)
(448.015 70.0146 0)
(420.72 68.0365 2.23023e-17)
(404.792 62.2894 0)
(381.513 59.2923 0)
(367.368 54.582 -3.89875e-17)
(348.859 52.5371 -7.32042e-17)
(336.846 49.0867 0)
(321.852 47.5277 1.13903e-16)
(311.059 44.8323 -1.26165e-16)
(298.301 43.561 1.62649e-16)
(288.384 41.5157 -1.8161e-16)
(277.551 40.5773 0)
(269.007 39.1654 -4.81384e-16)
(260.506 38.6445 0)
(253.927 37.8848 -2.93471e-16)
(247.651 37.7763 3.12325e-16)
(242.48 37.4417 0)
(237.135 37.3777 3.11886e-16)
(232.001 36.9625 2.918e-16)
(226.379 36.5148 5.31264e-16)
(220.764 35.7429 -4.78861e-16)
(214.895 34.8618 4.37589e-16)
(209.217 33.8402 2.0422e-16)
(203.523 32.746 1.94753e-16)
(198.165 31.7355 -1.8835e-16)
(192.912 30.6842 -1.82971e-16)
(188.121 29.911 0)
(183.462 29.0392 0)
(179.348 28.5758 -1.60136e-16)
(175.214 27.8314 2.99137e-16)
(171.64 27.5997 -1.39021e-16)
(167.745 26.8077 2.57827e-16)
(164.539 26.7072 0)
(160.604 25.6892 -1.13057e-16)
(157.76 25.6586 0)
(153.486 24.2173 -2.07021e-16)
(151.184 24.1605 0)
(145.943 21.9979 0)
(144.63 21.7667 0)
(136.669 17.794 0)
(100.048 -2.05813 0)
(100.805 -5.53769 8.17648e-17)
(102.131 -8.60665 -1.52704e-16)
(103.907 -11.1031 0)
(105.752 -13.7094 0)
(107.598 -16.6129 0)
(109.121 -19.897 0)
(110.363 -23.264 4.08655e-21)
(111.262 -26.3914 0)
(111.967 -29.0152 -9.51032e-17)
(112.595 -30.9424 0)
(113.376 -32.0859 -1.07233e-16)
(114.617 -32.3912 -2.17316e-21)
(116.528 -32.0679 -1.03718e-16)
(119.067 -31.4928 0)
(121.821 -31.1125 0)
(124.629 -31.0015 7.85349e-17)
(127.384 -31.1583 7.29451e-17)
(130.279 -31.4022 -6.89965e-17)
(133.214 -31.7904 -6.58905e-17)
(136.383 -32.1761 1.26667e-16)
(139.575 -32.7103 0)
(143.061 -33.1964 5.87073e-17)
(146.527 -33.8668 0)
(150.372 -34.4375 -5.44039e-17)
(154.134 -35.2545 0)
(158.403 -35.9026 0)
(162.496 -36.8907 0)
(167.282 -37.6126 -4.65421e-17)
(171.747 -38.8086 4.44846e-17)
(177.173 -39.6019 0)
(182.061 -41.057 -4.09122e-17)
(188.3 -41.9123 3.6838e-21)
(193.666 -43.6882 7.48643e-17)
(200.945 -44.589 0)
(206.835 -46.766 6.78688e-17)
(215.454 -47.6983 0)
(221.903 -50.3797 7.2777e-21)
(232.272 -51.3472 -2.97418e-17)
(239.286 -54.6806 -2.64635e-17)
(251.889 -55.8173 4.21235e-21)
(259.337 -60.1517 2.21652e-17)
(274.842 -61.9384 -2.26811e-17)
(282.812 -67.7558 -1.79075e-17)
(302.635 -70.7005 0)
(312.005 -77.7947 1.40776e-17)
(338.831 -81.4878 0)
(352.197 -87.8934 0)
(390.473 -91.0724 -1.73869e-17)
(409.992 -94.7412 -1.19796e-18)
(460.256 -99.9688 0)
(487.582 -92.3752 0)
(558.091 -99.8089 1.67576e-18)
(613.151 -2.44718 -1.33287e-18)
(565.004 48.1789 0)
(548.026 61.3912 -2.31949e-17)
(509.973 70.1296 -1.02953e-20)
(494.623 71.0135 0)
(463.904 73.5301 2.22453e-17)
(448.442 70.3314 0)
(421.328 68.3804 -2.26529e-17)
(405.488 62.6462 0)
(382.24 59.6397 0)
(368.068 54.9161 7.82625e-17)
(349.516 52.8458 0)
(337.444 49.3814 0)
(322.395 47.8005 -1.13728e-16)
(311.538 45.0958 -3.4604e-20)
(298.713 43.8039 -1.6237e-16)
(288.713 41.7452 -3.26886e-20)
(277.784 40.7785 0)
(269.131 39.3416 2.41728e-16)
(260.519 38.7849 0)
(253.845 37.9987 2.98065e-16)
(247.516 37.8676 0)
(242.355 37.5307 3.29703e-16)
(237.095 37.4791 -3.29261e-16)