/*--------------------------------*- C++ -*----------------------------------*\
| =========                 |                                                 |
| \\      /  F ield         | OpenFOAM: The Open Source CFD Toolbox           |
|  \\    /   O peration     | Version:  2412                                  |
|   \\  /    A nd           | Website:  www.openfoam.com                      |
|    \\/     M anipulation  |                                                 |
\*---------------------------------------------------------------------------*/
FoamFile
{
    version     2.0;
    format      ascii;
    arch        "LSB;label=32;scalar=64";
    class       volScalarField;
    location    "0.1";
    object      epsilon;
}
// * * * * * * * * * * * * * * * * * * * * * * * * * * * * * * * * * * * * * //

dimensions      [0 2 -3 0 0 0 0];

internalField   nonuniform List<scalar> 
12960
(
566.858
673.122
607.273
527.741
482.841
463.081
456.035
453.771
453.305
453.659
454.621
456.099
458.041
460.444
463.272
466.56
470.284
474.499
479.203
484.468
490.307
496.817
503.995
512.035
520.801
530.829
541.444
554.128
567.034
583.283
599.409
620.587
641.244
669.751
696.373
736.37
772.201
831.317
882.322
970.252
1036.03
1160.46
1234.19
1385.72
1434.53
1584.96
1622.32
1893.77
2051.75
2362.49
2597.03
2452.74
2878.69
2091.47
1482.1
1445.82
1540.76
1388.78
1281.92
1128.75
1070.92
963.727
924.195
851.594
824.875
778.081
763.399
732.16
718.103
693.736
682.063
662.591
648.11
628.614
611.62
592.511
576.215
561.645
549.746
539.478
530.665
523.11
515.543
508.906
501.287
494.825
486.768
480.16
471.626
464.519
455.795
447.831
439.438
430.393
423.272
415.032
410.158
407.628
402.956
569.759
677.233
609.755
528.659
482.993
462.958
455.845
453.583
453.132
453.503
454.478
455.967
457.916
460.325
463.154
466.442
470.164
474.375
479.073
484.331
490.16
496.659
503.824
511.849
520.596
530.605
541.193
553.853
566.722
582.934
599.014
620.138
640.731
669.163
695.701
735.602
771.322
830.335
881.274
969.151
1034.87
1159.42
1233.17
1384.9
1433.47
1583.62
1620.43
1892.88
2051.61
2367.09
2603.97
2462.55
2888.86
2084.15
1474.58
1443.34
1541.3
1388.93
1282.15
1128.54
1070.62
963.111
923.574
850.861
824.205
777.431
762.832
731.645
717.674
693.32
681.723
662.271
647.832
628.332
611.335
592.218
575.909
561.342
549.467
539.23
530.455
522.934
515.394
508.774
501.17
494.718
486.666
480.07
471.537
464.446
455.718
447.774
439.382
430.347
423.231
414.979
410.106
407.567
402.868
572.694
681.378
612.256
529.589
483.151
462.839
455.658
453.397
452.961
453.349
454.337
455.837
457.794
460.207
463.039
466.327
470.047
474.254
478.945
484.196
490.015
496.503
503.654
511.664
520.393
530.382
540.944
553.576
566.409
582.583
598.615
619.685
640.21
668.567
695.016
734.817
770.422
829.322
880.185
967.995
1033.64
1158.28
1232.04
1383.92
1432.18
1581.99
1618.17
1891.47
2050.74
2370.79
2609.38
2469.97
2894.46
2072
1464.22
1438.73
1540.01
1387.66
1281.42
1127.63
1069.76
962.056
922.584
849.83
823.276
776.566
762.075
730.969
717.101
692.781
681.274
661.857
647.469
627.98
610.987
591.871
575.554
560.997
549.149
538.949
530.216
522.733
515.224
508.624
501.037
494.598
486.553
479.972
471.442
464.367
455.637
447.715
439.326
430.303
423.193
414.93
410.06
407.511
402.784
575.668
685.551
614.764
530.522
483.309
462.719
455.47
453.21
452.789
453.194
454.195
455.707
457.671
460.09
462.924
466.212
469.93
474.132
478.818
484.06
489.87
496.346
503.483
511.477
520.187
530.156
540.691
553.295
566.092
582.225
598.209
619.223
639.679
667.957
694.315
734.01
769.496
828.274
879.047
966.774
1032.33
1157.04
1230.78
1382.75
1430.66
1580.04
1615.51
1889.49
2049.08
2373.5
2613.17
2474.95
2895.69
2055.37
1451.23
1432.08
1536.93
1385
1279.73
1126.03
1068.32
960.557
921.221
848.498
822.086
775.485
761.124
730.129
716.382
692.118
680.712
661.344
647.019
627.553
610.574
591.467
575.148
560.608
548.791
538.633
529.946
522.505
515.03
508.454
500.886
494.463
486.429
479.864
471.34
464.284
455.554
447.654
439.272
430.26
423.161
414.887
410.022
407.463
402.707
578.681
689.752
617.276
531.452
483.463
462.596
455.279
453.021
452.615
453.036
454.051
455.575
457.546
459.97
462.807
466.095
469.811
474.009
478.688
483.923
489.723
496.187
503.31
511.289
519.979
529.926
540.436
553.01
565.771
581.862
597.797
618.752
639.137
667.334
693.598
733.183
768.546
827.192
877.865
965.493
1030.95
1155.7
1229.39
1381.4
1428.91
1577.76
1612.45
1886.94
2046.64
2375.22
2615.31
2477.54
2892.83
2034.72
1435.88
1423.54
1532.1
1380.96
1277.09
1123.75
1066.32
958.627
919.495
846.877
820.643
774.196
759.986
729.131
715.521
691.333
680.039
660.738
646.485
627.056
610.098
591.009
574.694
560.176
548.394
538.283
529.645
522.251
514.814
508.265
500.719
494.315
486.294
479.748
471.232
464.198
455.47
447.595
439.221
430.224
423.138
414.854
409.997
407.429
402.641
581.733
693.981
619.792
532.379
483.612
462.467
455.084
452.828
452.437
452.876
453.905
455.44
457.419
459.849
462.688
465.977
469.69
473.885
478.558
483.784
489.574
496.027
503.136
511.098
519.77
529.695
540.178
552.722
565.447
581.494
597.38
618.277
638.589
666.702
692.872
732.342
767.58
826.087
876.65
964.165
1029.52
1154.26
1227.89
1379.89
1426.94
1575.17
1609.01
1883.84
2043.45
2375.96
2615.86
2477.81
2886.25
2010.53
1418.45
1413.26
1525.63
1375.62
1273.57
1120.83
1063.8
956.291
917.429
844.986
818.965
772.712
758.672
727.985
714.528
690.436
679.265
660.044
645.874
626.494
609.565
590.503
574.197
559.706
547.963
537.903
529.317
521.974
514.577
508.059
500.539
494.157
486.151
479.626
471.121
464.111
455.389
447.541
439.179
430.198
423.129
414.834
409.989
407.413
402.588
584.823
698.238
622.314
533.303
483.756
462.334
454.885
452.631
452.256
452.713
453.756
455.303
457.29
459.726
462.567
465.857
469.569
473.76
478.427
483.645
489.426
495.867
502.962
510.908
519.561
529.464
539.921
552.434
565.122
581.126
596.963
617.799
638.04
666.067
692.142
731.495
766.605
824.969
875.413
962.803
1028.05
1152.76
1226.31
1378.23
1424.77
1572.31
1605.24
1880.25
2039.55
2375.77
2614.87
2475.86
2876.37
1983.37
1399.25
1401.44
1517.61
1369.07
1269.19
1117.3
1060.78
953.58
915.049
842.849
817.071
771.051
757.198
726.704
713.413
689.436
678.398
659.271
645.192
625.875
608.982
589.954
573.661
559.203
547.502
537.495
528.966
521.676
514.324
507.839
500.347
493.99
486.003
479.503
471.011
464.027
455.313
447.495
439.148
430.184
423.136
414.833
410.002
407.417
402.552
587.949
702.525
624.844
534.222
483.893
462.195
454.682
452.431
452.072
452.547
453.604
455.163
457.159
459.601
462.445
465.736
469.446
473.634
478.295
483.506
489.277
495.707
502.789
510.719
519.353
529.234
539.666
552.147
564.801
580.76
596.548
617.324
637.493
665.434
691.415
730.649
765.631
823.847
874.166
961.422
1026.55
1151.21
1224.67
1376.46
1422.45
1569.21
1601.16
1876.2
2035
2374.68
2612.42
2471.83
2863.66
1953.83
1378.6
1388.28
1508.17
1361.39
1264.05
1113.22
1057.31
950.53
912.386
840.491
814.985
769.232
755.58
725.303
712.191
688.346
677.448
658.429
644.45
625.207
608.355
589.369
573.094
558.672
547.016
537.066
528.594
521.362
514.056
507.608
500.148
493.819
485.852
479.379
470.903
463.949
455.246
447.46
439.131
430.187
423.163
414.852
410.038
407.445
402.536
591.111
706.842
627.382
535.139
484.024
462.051
454.474
452.226
451.884
452.377
453.449
455.021
457.026
459.474
462.322
465.614
469.323
473.508
478.164
483.368
489.13
495.549
502.617
510.532
519.148
529.007
539.414
551.864
564.483
580.398
596.14
616.855
636.954
664.808
690.696
729.81
764.666
822.732
872.922
960.035
1025.05
1149.63
1222.99
1374.6
1419.99
1565.89
1596.82
1871.75
2029.87
2372.78
2608.63
2465.86
2848.62
1922.52
1356.84
1373.99
1497.43
1352.7
1258.2
1108.65
1053.43
947.18
909.474
837.942
812.731
767.276
753.838
723.799
710.875
687.178
676.429
657.529
643.656
624.499
607.694
588.755
572.5
558.118
546.509
536.618
528.207
521.034
513.778
507.37
499.943
493.645
485.702
479.258
470.801
463.878
455.19
447.438
439.131
430.208
423.213
414.895
410.1
407.5
402.54
594.306
711.19
629.93
536.052
484.148
461.901
454.261
452.017
451.692
452.204
453.292
454.877
456.891
459.346
462.198
465.492
469.2
473.382
478.033
483.231
488.984
495.393
502.449
510.348
518.946
528.785
539.167
551.588
564.173
580.044
595.74
616.395
636.426
664.193
689.991
728.986
763.716
821.632
871.691
958.657
1023.55
1148.03
1221.29
1372.68
1417.43
1562.41
1592.27
1866.94
2024.22
2370.14
2603.62
2458.13
2831.77
1890.07
1334.3
1358.78
1485.56
1343.12
1251.73
1103.65
1049.2
943.571
906.349
835.231
810.335
765.204
751.989
722.206
709.48
685.944
675.35
656.58
642.82
623.758
607.006
588.118
571.887
557.548
545.987
536.158
527.809
520.698
513.493
507.127
499.736
493.471
485.554
479.143
470.706
463.818
455.147
447.431
439.15
430.251
423.287
414.963
410.19
407.583
402.567
597.535
715.57
632.489
536.963
484.266
461.745
454.043
451.804
451.496
452.027
453.131
454.73
456.754
459.216
462.072
465.369
469.077
473.257
477.904
483.096
488.841
495.24
502.284
510.169
518.75
528.569
538.927
551.318
563.871
579.7
595.351
615.947
635.912
663.594
689.304
728.181
762.789
820.555
870.483
957.299
1022.08
1146.45
1219.59
1370.71
1414.79
1558.78
1587.54
1861.84
2018.14
2366.83
2597.5
2448.83
2813.65
1857.1
1311.3
1342.87
1472.7
1332.77
1244.73
1098.28
1044.67
939.746
903.047
832.389
807.823
763.038
750.054
720.542
708.022
684.659
674.223
655.594
641.952
622.994
606.297
587.467
571.261
556.966
545.455
535.687
527.402
520.355
513.204
506.883
499.529
493.3
485.411
479.035
470.622
463.771
455.119
447.443
439.19
430.317
423.389
415.059
410.31
407.696
402.617
600.796
719.982
635.059
537.871
484.378
461.584
453.821
451.587
451.297
451.848
452.968
454.58
456.615
459.085
461.946
465.246
468.954
473.132
477.776
482.962
488.7
495.09
502.123
509.995
518.56
528.359
538.695
551.058
563.58
579.367
594.975
615.514
635.415
663.014
688.639
727.401
761.89
819.508
869.307
955.971
1020.65
1144.88
1217.9
1368.73
1412.11
1555.06
1582.68
1856.51
2011.69
2362.95
2590.43
2438.14
2794.78
1824.23
1288.17
1326.48
1459.02
1321.78
1237.28
1092.61
1039.9
935.75
899.605
829.446
805.223
760.801
748.052
718.825
706.514
683.334
673.062
654.581
641.061
622.215
605.577
586.807
570.628
556.378
544.916
535.212
526.991
520.009
512.913
506.639
499.325
493.134
485.276
478.937
470.549
463.737
455.109
447.474
439.253
430.407
423.518
415.184
410.46
407.839
402.691
604.089
724.427
637.643
538.778
484.484
461.416
453.593
451.365
451.094
451.665
452.802
454.429
456.474
458.953
461.819
465.122
468.831
473.009
477.649
482.832
488.563
494.944
501.967
509.826
518.376
528.157
538.472
550.807
563.3
579.047
594.614
615.097
634.938
662.455
688
726.649
761.025
818.497
868.17
954.684
1019.26
1143.35
1216.26
1366.75
1409.4
1551.27
1577.73
1851
2004.94
2358.57
2582.56
2426.28
2775.68
1792.05
1265.22
1309.82
1444.68
1310.3
1229.48
1086.72
1034.94
931.626
896.061
826.434
802.561
758.514
746.003
717.069
704.971
681.983
671.877
653.551
640.156
621.428
604.852
586.144
569.992
555.789
544.377
534.735
526.579
519.664
512.624
506.399
499.127
492.976
485.15
478.85
470.49
463.719
455.116
447.525
439.339
430.522
423.675
415.337
410.64
408.013
402.789
607.412
728.906
640.24
539.683
484.584
461.243
453.361
451.139
450.887
451.478
452.633
454.275
456.331
458.819
461.692
464.999
468.709
472.887
477.525
482.703
488.428
494.803
501.815
509.664
518.199
527.963
538.258
550.567
563.032
578.74
594.27
614.698
634.482
661.92
687.388
725.927
760.195
817.527
867.079
953.445
1017.92
1141.86
1214.67
1364.8
1406.7
1547.44
1572.73
1845.37
1997.99
2353.8
2574.02
2413.47
2756.87
1761.1
1242.74
1293.09
1429.85
1298.44
1221.42
1080.66
1029.84
927.418
892.451
823.381
799.861
756.199
743.925
715.293
703.409
680.618
670.68
652.514
639.247
620.642
604.129
585.485
569.36
555.204
543.84
534.261
526.17
519.322
512.34
506.165
498.935
492.826
485.034
478.775
470.445
463.718
455.142
447.597
439.449
430.663
423.862
415.52
410.852
408.217
402.91
610.766
733.418
642.851
540.587
484.678
461.064
453.123
450.909
450.676
451.289
452.461
454.118
456.187
458.684
461.564
464.875
468.588
472.766
477.402
482.577
488.297
494.665
501.669
509.507
518.029
527.777
538.054
550.338
562.777
578.448
593.942
614.319
634.048
661.41
686.807
725.24
759.406
816.601
866.037
952.26
1016.65
1140.44
1213.14
1362.89
1404.02
1543.61
1567.71
1839.66
1990.89
2348.73
2564.99
2399.92
2738.81
1731.92
1221
1276.49
1414.7
1286.35
1213.2
1074.5
1024.65
923.166
888.81
820.317
797.15
753.875
741.837
713.51
701.841
679.252
669.481
651.48
638.341
619.864
603.414
584.835
568.737
554.626
543.31
533.793
525.766
518.986
512.062
505.938
498.752
492.686
484.929
478.714
470.415
463.734
455.188
447.69
439.584
430.829
424.076
415.731
411.093
408.45
403.053
614.15
737.964
645.477
541.491
484.767
460.88
452.881
450.675
450.461
451.096
452.286
453.96
456.041
458.548
461.435
464.752
468.467
472.646
477.281
482.454
488.17
494.532
501.528
509.356
517.867
527.6
537.859
550.121
562.535
578.171
593.631
613.959
633.638
660.926
686.256
724.587
758.657
815.722
865.05
951.135
1015.46
1139.08
1211.69
1361.03
1401.4
1539.8
1562.73
1833.94
1983.72
2343.44
2555.6
2385.86
2721.95
1704.94
1200.24
1260.19
1399.39
1274.14
1204.89
1068.31
1019.44
918.911
885.171
817.267
794.449
751.562
739.756
711.737
700.28
677.895
668.291
650.457
637.447
619.1
602.714
584.198
568.126
554.06
542.79
533.334
525.371
518.659
511.793
505.721
498.579
492.558
484.838
478.667
470.401
463.767
455.254
447.805
439.742
431.021
424.319
415.97
411.362
408.711
403.217
617.564
742.543
648.117
542.394
484.85
460.69
452.635
450.436
450.243
450.9
452.109
453.799
455.893
458.411
461.305
464.628
468.347
472.527
477.162
482.333
488.046
494.403
501.392
509.212
517.711
527.43
537.674
549.914
562.306
577.909
593.337
613.619
633.25
660.469
685.736
723.97
757.95
814.89
864.119
950.072
1014.33
1137.79
1210.32
1359.26
1398.83
1536.04
1557.79
1828.25
1976.55
2338.03
2546
2371.51
2706.7
1680.58
1180.69
1244.36
1384.08
1261.95
1196.58
1062.14
1014.25
914.689
881.565
814.256
791.78
749.278
737.698
709.986
698.738
676.558
667.119
649.454
636.572
618.357
602.033
583.581
567.533
553.509
542.284
532.887
524.987
518.342
511.534
505.515
498.418
492.443
484.76
478.635
470.403
463.818
455.339
447.941
439.923
431.237
424.588
416.235
411.659
408.998
403.401
621.006
747.157
650.773
543.298
484.929
460.495
452.383
450.194
450.021
450.7
451.929
453.636
455.743
458.272
461.175
464.504
468.226
472.409
477.045
482.215
487.924
494.278
501.261
509.073
517.563
527.269
537.499
549.718
562.089
577.661
593.061
613.298
632.885
660.037
685.247
723.389
757.286
814.106
863.245
949.074
1013.28
1136.59
1209.04
1357.56
1396.35
1532.35
1552.95
1822.63
1969.44
2332.58
2536.34
2357.09
2693.4
1659.18
1162.53
1229.15
1368.92
1249.89
1188.35
1056.05
1009.11
910.534
878.02
811.307
789.163
747.039
735.678
708.271
697.227
675.251
665.975
648.478
635.723
617.639
601.377
582.986
566.96
552.976
541.793
532.455
524.615
518.037
511.287
505.321
498.27
492.341
484.696
478.618
470.421
463.886
455.442
448.097
440.126
431.476
424.882
416.526
411.982
409.31
403.603
624.477
751.804
653.444
544.202
485.003
460.295
452.128
449.947
449.796
450.498
451.746
453.471
455.591
458.132
461.044
464.379
468.106
472.292
476.928
482.098
487.806
494.156
501.134
508.939
517.42
527.116
537.332
549.533
561.885
577.428
592.801
612.995
632.543
659.632
684.788
722.842
756.663
813.371
862.429
948.142
1012.3
1135.46
1207.86
1355.96
1393.96
1528.76
1548.21
1817.12
1962.43
2327.17
2526.74
2342.81
2682.38
1641.01
1145.94
1214.69
1354.05
1238.06
1180.26
1050.08
1004.08
906.476
874.561
808.439
786.614
744.859
733.708
706.601
695.755
673.982
664.865
647.536
634.904
616.952
600.749
582.417
566.411
552.464
541.322
532.038
524.259
517.746
511.054
505.14
498.135
492.252
484.647
478.616
470.455
463.971
455.564
448.272
440.351
431.737
425.2
416.84
412.328
409.644
403.822
627.976
756.485
656.131
545.108
485.073
460.091
451.868
449.697
449.567
450.292
451.561
453.303
455.438
457.991
460.911
464.254
467.986
472.175
476.813
481.983
487.689
494.037
501.011
508.811
517.284
526.969
537.174
549.357
561.693
577.207
592.556
612.711
632.221
659.25
684.359
722.329
756.08
812.681
861.668
947.273
1011.41
1134.42
1206.78
1354.46
1391.68
1525.27
1543.6
1811.75
1955.6
2321.88
2517.33
2328.87
2673.88
1626.3
1131.04
1201.07
1339.61
1226.56
1172.4
1044.29
999.188
902.542
871.21
805.671
784.149
742.751
731.8
704.987
694.332
672.759
663.796
646.633
634.121
616.299
600.153
581.877
565.887
551.975
540.87
531.64
523.919
517.47
510.835
504.974
498.013
492.178
484.611
478.629
470.504
464.072
455.703
448.466
440.595
432.018
425.54
417.175
412.695
409.997
404.055
631.504
761.2
658.834
546.014
485.139
459.882
451.604
449.443
449.335
450.084
451.373
453.133
455.283
457.848
460.778
464.129
467.866
472.059
476.699
481.87
487.575
493.921
500.891
508.686
517.153
526.829
537.023
549.191
561.51
576.999
592.326
612.443
631.919
658.892
683.956
721.848
755.535
812.036
860.962
946.468
1010.59
1133.46
1205.79
1353.06
1389.51
1521.91
1539.14
1806.55
1948.96
2316.76
2508.21
2315.45
2668.12
1615.18
1117.94
1188.4
1325.7
1215.46
1164.8
1038.72
994.463
898.754
867.986
803.015
781.779
740.724
729.963
703.437
692.966
671.587
662.774
645.774
633.379
615.683
599.591
581.367
565.392
551.511
540.441
531.261
523.596
517.211
510.632
504.822
497.906
492.117
484.59
478.655
470.568
464.189
455.859
448.676
440.857
432.318
425.899
417.529
413.082
410.369
404.3
635.06
765.949
661.553
546.923
485.201
459.669
451.336
449.186
449.1
449.873
451.182
452.961
455.126
457.704
460.643
464.002
467.745
471.943
476.585
481.757
487.463
493.807
500.775
508.566
517.027
526.695
536.879
549.032
561.338
576.802
592.108
612.19
631.636
658.555
683.579
721.396
755.025
811.432
860.307
945.723
1009.83
1132.58
1204.91
1351.76
1387.46
1518.67
1534.85
1801.54
1942.58
2311.88
2499.5
2302.72
2665.26
1607.74
1106.69
1176.75
1312.43
1204.85
1157.52
1033.38
989.933
895.131
864.904
800.484
779.516
738.788
728.206
701.958
691.661
670.471
661.804
644.962
632.679
615.108
599.066
580.89
564.925
551.072
540.035
530.902
523.292
516.968
510.444
504.685
497.813
492.071
484.582
478.696
470.645
464.319
456.029
448.902
441.135
432.634
426.276
417.9
413.485
410.755
404.556
638.643
770.731
664.288
547.834
485.261
459.452
451.065
448.926
448.862
449.659
450.989
452.787
454.967
457.558
460.508
463.875
467.624
471.826
476.472
481.646
487.351
493.695
500.661
508.448
516.904
526.565
536.741
548.88
561.173
576.614
591.903
611.951
631.369
658.237
683.225
720.971
754.548
810.866
859.7
945.035
1009.15
1131.78
1204.12
1350.58
1385.53
1515.58
1530.72
1796.75
1936.46
2307.29
2491.26
2290.83
2665.41
1604.04
1097.36
1166.16
1299.87
1194.78
1150.59
1028.31
985.619
891.689
861.976
798.086
777.368
736.949
726.534
700.554
690.423
669.416
660.888
644.2
632.025
614.574
598.578
580.446
564.488
550.66
539.652
530.564
523.006
516.742
510.272
504.563
497.734
492.037
484.587
478.749
470.736
464.463
456.212
449.142
441.428
432.965
426.669
418.286
413.903
411.154
404.821
642.254
775.546
667.04
548.748
485.318
459.231
450.791
448.662
448.622
449.443
450.794
452.611
454.806
457.41
460.371
463.746
467.502
471.709
476.358
481.534
487.24
493.584
500.548
508.333
516.785
526.439
536.608
548.734
561.016
576.435
591.708
611.724
631.116
657.936
682.891
720.57
754.1
810.334
859.137
944.4
1008.53
1131.05
1203.42
1349.5
1383.73
1512.62
1526.77
1792.18
1930.65
2303.04
2483.58
2279.92
2668.63
1604.04
1089.95
1156.67
1288.11
1185.29
1144.06
1023.54
981.537
888.437
859.211
795.829
775.338
735.21
724.952
699.23
689.254
668.425
660.03
643.491
631.419
614.082
598.128
580.036
564.081
550.274
539.293
530.246
522.74
516.533
510.115
504.455
497.668
492.017
484.604
478.815
470.838
464.619
456.408
449.394
441.733
433.31
427.075
418.684
414.333
411.564
405.091
645.892
780.395
669.808
549.664
485.372
459.008
450.513
448.396
448.378
449.224
450.597
452.433
454.643
457.261
460.232
463.617
467.379
471.591
476.244
481.423
487.13
493.474
500.437
508.22
516.668
526.316
536.479
548.593
560.865
576.263
591.521
611.506
630.875
657.649
682.575
720.19
753.678
809.833
858.614
943.813
1007.97
1130.39
1202.81
1348.52
1382.04
1509.82
1523
1787.85
1925.14
2299.14
2476.52
2270.11
2674.94
1607.68
1084.46
1148.29
1277.2
1176.43
1137.94
1019.07
977.7
885.384
856.615
793.715
773.432
733.576
723.463
697.987
688.158
667.497
659.231
642.835
630.859
613.633
597.717
579.659
563.705
549.915
538.957
529.95
522.492
516.34
509.974
504.361
497.615
492.008
484.633
478.891
470.951
464.785
456.614
449.657
442.05
433.664
427.492
419.093
414.772
411.982
405.367
649.558
785.276
672.593
550.584
485.425
458.781
450.233
448.127
448.132
449.003
450.397
452.252
454.478
457.11
460.092
463.485
467.255
471.473
476.129
481.311
487.02
493.364
500.327
508.108
516.552
526.195
536.353
548.455
560.719
576.097
591.341
611.297
630.645
657.375
682.274
719.828
753.277
809.359
858.126
943.269
1007.46
1129.8
1202.27
1347.65
1380.48
1507.15
1519.42
1783.75
1919.97
2295.65
2470.11
2261.48
2684.33
1614.88
1080.86
1141.03
1267.16
1168.22
1132.25
1014.91
974.116
882.534
854.192
791.747
771.65
732.047
722.068
696.826
687.134
666.635
658.491
642.231
630.348
613.226
597.343
579.314
563.357
549.581
538.645
529.674
522.262
516.165
509.848
504.281
497.575
492.011
484.672
478.978
471.073
464.961
456.828
449.929
442.375
434.029
427.918
419.51
415.22
412.405
405.646
653.25
790.19
675.394
551.507
485.476
458.551
449.95
447.856
447.884
448.779
450.195
452.07
454.312
456.957
459.95
463.353
467.129
471.353
476.013
481.198
486.908
493.254
500.216
507.996
516.438
526.076
536.228
548.321
560.576
575.935
591.167
611.095
630.423
657.111
681.986
719.481
752.896
808.907
857.668
942.763
1007
1129.26
1201.82
1346.86
1379.03
1504.63
1516.01
1779.89
1915.13
2292.56
2464.4
2254.11
2696.73
1625.48
1079.11
1134.88
1258.04
1160.67
1127
1011.07
970.786
879.888
851.941
789.923
769.992
730.622
720.766
695.748
686.183
665.838
657.81
641.681
629.883
612.861
597.007
579.002
563.038
549.272
538.355
529.417
522.05
516.004
509.736
504.213
497.546
492.024
484.721
479.073
471.203
465.145
457.051
450.208
442.707
434.4
428.352
419.933
415.674
412.833
405.926
656.97
795.136
678.212
552.435
485.525
458.319
449.664
447.582
447.634
448.554
449.992
451.886
454.144
456.802
459.806
463.219
467.002
471.231
475.896
481.084
486.797
493.143
500.105
507.884
516.323
525.957
536.105
548.187
560.435
575.776
590.996
610.897
630.208
656.855
681.707
719.146
752.529
808.473
857.236
942.29
1006.58
1128.78
1201.43
1346.17
1377.69
1502.24
1512.77
1776.27
1910.61
2289.89
2459.4
2248.04
2712.08
1639.34
1079.13
1129.81
1249.82
1153.78
1122.2
1007.56
967.712
877.444
849.86
788.242
768.456
729.3
719.557
694.75
685.304
665.104
657.186
641.181
629.464
612.535
596.706
578.72
562.746
548.987
538.087
529.179
521.855
515.859
509.637
504.157
497.528
492.047
484.779
479.176
471.341
465.335
457.28
450.494
443.046
434.777
428.791
420.362
416.132
413.263
406.206
660.716
800.115
681.047
553.366
485.574
458.085
449.376
447.306
447.381
448.327
449.786
451.7
453.974
456.646
459.661
463.083
466.874
471.108
475.778
480.969
486.683
493.031
499.993
507.771
516.209
525.838
535.982
548.055
560.296
575.619
590.828
610.702
629.997
656.604
681.436
718.82
752.173
808.053
856.825
941.845
1006.19
1128.34
1201.11
1345.56
1376.45
1499.98
1509.69
1772.88
1906.43
2287.65
2455.12
2243.32
2730.26
1656.27
1080.87
1125.79
1242.53
1147.56
1117.82
1004.35
964.89
875.197
847.947
786.699
767.039
728.078
718.438
693.831
684.494
664.432
656.619
640.732
629.089
612.247
596.438
578.466
562.48
548.725
537.838
528.959
521.675
515.728
509.551
504.113
497.519
492.078
484.844
479.286
471.484
465.531
457.513
450.785
443.388
435.158
429.235
420.793
416.593
413.694
406.485
664.489
805.126
683.899
554.302
485.622
457.849
449.086
447.028
447.127
448.098
449.579
451.512
453.802
456.488
459.514
462.945
466.743
470.984
475.658
480.852
486.568
492.918
499.88
507.657
516.093
525.719
535.859
547.922
560.156
575.462
590.661
610.509
629.788
656.357
681.169
718.5
751.826
807.644
856.43
941.422
1005.83
1127.94
1200.84
1345.03
1375.31
1497.85
1506.78
1769.71
1902.57
2285.84
2451.56
2239.95
2751.14
1676.09
1084.22
1122.78
1236.13
1141.99
1113.88
1001.45
962.313
873.143
846.195
785.289
765.736
726.951
717.406
692.988
683.751
663.819
656.106
640.329
628.756
611.995
596.202
578.24
562.237
548.483
537.608
528.756
521.511
515.61
509.477
504.078
497.519
492.117
484.915
479.401
471.632
465.731
457.75
451.079
443.734
435.542
429.681
421.226
417.055
414.125
406.763
668.288
810.168
686.768
555.243
485.67
457.612
448.795
446.749
446.871
447.867
449.37
451.323
453.629
456.328
459.366
462.806
466.611
470.857
475.536
480.733
486.452
492.803
499.765
507.541
515.975
525.597
535.734
547.788
560.016
575.305
590.494
610.316
629.58
656.111
680.905
718.183
751.484
807.241
856.048
941.017
1005.49
1127.58
1200.61
1344.56
1374.26
1495.84
1504.01
1766.75
1899.02
2284.44
2448.72
2237.94
2774.59
1698.58
1089.09
1120.73
1230.6
1137.04
1110.36
998.851
959.973
871.271
844.597
784.006
764.542
725.915
716.456
692.216
683.071
663.263
655.643
639.972
628.462
611.777
595.996
578.038
562.017
548.261
537.396
528.567
521.36
515.503
509.413
504.053
497.527
492.162
484.992
479.521
471.784
465.934
457.99
451.376
444.081
435.928
430.129
421.66
417.518
414.555
407.037
672.113
815.243
689.654
556.19
485.717
457.372
448.501
446.467
446.613
447.634
449.159
451.132
453.453
456.167
459.215
462.664
466.477
470.729
475.411
480.612
486.333
492.685
499.648
507.423
515.856
525.474
535.607
547.653
559.875
575.147
590.326
610.122
629.372
655.865
680.641
717.867
751.145
806.843
855.675
940.625
1005.17
1127.24
1200.43
1344.16
1373.29
1493.93
1501.38
1763.99
1895.76
2283.45
2446.58
2237.26
2800.46
1723.55
1095.4
1119.57
1225.92
1132.71
1107.23
996.532
957.86
869.575
843.146
782.843
763.451
724.964
715.585
691.512
682.452
662.759
655.229
639.656
628.206
611.59
595.817
577.859
561.816
548.056
537.199
528.392
521.222
515.408
509.359
504.035
497.542
492.213
485.074
479.645
471.939
466.14
458.231
451.674
444.429
436.315
430.577
422.093
417.98
414.982
407.308
675.965
820.348
692.557
557.141
485.764
457.132
448.206
446.185
446.354
447.401
448.947
450.939
453.277
456.004
459.063
462.521
466.341
470.599
475.285
480.489
486.212
492.565
499.529
507.303
515.734
525.349
535.479
547.515
559.731
574.986
590.156
609.926
629.162
655.618
680.377
717.55
750.805
806.444
855.306
940.243
1004.87
1126.93
1200.28
1343.81
1372.39
1492.12
1498.88
1761.41
1892.79
2282.86
2445.11
2237.88
2828.59
1750.8
1103.04
1119.27
1222.05
1128.95
1104.49
994.48
955.961
868.042
841.833
781.791
762.456
724.093
714.787
690.871
681.889
662.304
654.86
639.379
627.983
611.431
595.662
577.7
561.634
547.867
537.017
528.23
521.094
515.322
509.313
504.025
497.563
492.268
485.159
479.772
472.096
466.347
458.473
451.972
444.777
436.702
431.026
422.526
418.441
415.406
407.575
679.843
825.485
695.477
558.098
485.812
456.89
447.91
445.9
446.094
447.165
448.734
450.745
453.098
455.839
458.909
462.376
466.203
470.466
475.157
480.364
486.089
492.443
499.407
507.18
515.61
525.22
535.347
547.374
559.584
574.822
589.982
609.727
628.949
655.368
680.109
717.231
750.464
806.044
854.94
939.866
1004.57
1126.63
1200.16
1343.51
1371.56
1490.4
1496.48
1759
1890.07
2282.63
2444.29
2239.78
2858.82
1780.13
1111.9
1119.76
1218.94
1125.74
1102.1
992.68
954.264
866.662
840.648
780.843
761.549
723.296
714.057
690.289
681.377
661.896
654.532
639.137
627.792
611.298
595.53
577.56
561.468
547.691
536.847
528.079
520.977
515.245
509.275
504.021
497.588
492.327
485.248
479.901
472.254
466.555
458.715
452.271
445.125
437.088
431.473
422.957
418.9
415.827
407.837
683.746
830.653
698.415
559.06
485.86
456.648
447.613
445.615
445.832
446.929
448.519
450.55
452.919
455.673
458.753
462.23
466.063
470.332
475.027
480.236
485.963
492.318
499.282
507.055
515.482
525.089
535.212
547.23
559.434
574.655
589.805
609.524
628.732
655.113
679.838
716.907
750.117
805.64
854.572
939.491
1004.28
1126.35
1200.06
1343.25
1370.79
1488.76
1494.2
1756.76
1887.6
2282.77
2444.09
2242.89
2891
1811.35
1121.9
1120.97
1216.55
1123.04
1100.05
991.114
952.754
865.424
839.582
779.99
760.724
722.566
713.39
689.761
680.914
661.528
654.242
638.929
627.629
611.189
595.418
577.436
561.316
547.529
536.689
527.937
520.868
515.175
509.244
504.022
497.618
492.39
485.338
480.031
472.413
466.763
458.956
452.569
445.471
437.472
431.919
423.386
419.357
416.244
408.094
687.675
835.852
701.369
560.029
485.909
456.404
447.314
445.329
445.569
446.692
448.303
450.353
452.737
455.505
458.596
462.081
465.921
470.195
474.894
480.107
485.835
492.191
499.154
506.926
515.351
524.954
535.074
547.082
559.28
574.483
589.624
609.316
628.51
654.854
679.561
716.577
749.766
805.229
854.201
939.115
1003.98
1126.07
1199.98
1343.03
1370.07
1487.19
1492
1754.65
1885.36
2283.24
2444.47
2247.16
2924.98
1844.29
1132.94
1122.85
1214.83
1120.81
1098.31
989.765
951.418
864.315
838.625
779.223
759.974
721.898
712.78
689.282
680.494
661.199
653.986
638.749
627.492
611.099
595.324
577.326
561.176
547.376
536.54
527.804
520.767
515.112
509.218
504.027
497.651
492.454
485.43
480.162
472.572
466.971
459.197
452.866
445.815
437.855
432.363
423.812
419.813
416.658
408.347
691.63
841.082
704.341
561.003
485.959
456.16
447.014
445.041
445.305
446.453
448.086
450.155
452.555
455.335
458.437
461.931
465.778
470.057
474.759
479.974
485.704
492.061
499.024
506.794
515.218
524.816
534.932
546.93
559.122
574.308
589.438
609.103
628.283
654.589
679.278
716.24
749.407
804.811
853.825
938.736
1003.69
1125.8
1199.92
1342.84
1369.39
1485.69
1489.88
1752.67
1883.32
2284.01
2445.39
2252.53
2960.62
1878.79
1144.92
1125.35
1213.72
1119.03
1096.86
988.613
950.241
863.325
837.766
778.536
759.292
721.284
712.222
688.847
680.113
660.905
653.762
638.596
627.377
611.028
595.245
577.228
561.047
547.233
536.399
527.678
520.673
515.054
509.197
504.037
497.687
492.521
485.523
480.293
472.73
467.178
459.435
453.161
446.157
438.237
432.805
424.237
420.266
417.067
408.594
695.61
846.342
707.33
561.984
486.009
455.915
446.714
444.753
445.041
446.213
447.868
449.956
452.371
455.165
458.277
461.779
465.632
469.916
474.622
479.84
485.57
491.928