/*--------------------------------*- C++ -*----------------------------------*\
| =========                 |                                                 |
| \\      /  F ield         | OpenFOAM: The Open Source CFD Toolbox           |
|  \\    /   O peration     | Version:  2412                                  |
|   \\  /    A nd           | Website:  www.openfoam.com                      |
|    \\/     M anipulation  |                                                 |
\*---------------------------------------------------------------------------*/
FoamFile
{
    version     2.0;
    format      ascii;
    arch        "LSB;label=32;scalar=64";
    class       volScalarField;
    location    "0.1";
    object      k;
}
// * * * * * * * * * * * * * * * * * * * * * * * * * * * * * * * * * * * * * //

dimensions      [0 2 -2 0 0 0 0];

internalField   nonuniform List<scalar> 
12960
(
47.4008
51.2343
47.3712
43.9128
42.3014
41.677
41.4748
41.4117
41.4042
41.4277
41.4785
41.554
41.6514
41.7711
41.9108
42.0725
42.2545
42.4597
42.6873
42.9409
43.2205
43.5304
43.8697
44.2473
44.6557
45.1192
45.6051
46.1808
46.7595
47.4818
48.1872
49.1055
49.982
51.1798
52.2669
53.8833
55.28
57.5531
59.4252
62.5912
64.8108
68.9653
71.2142
75.8794
77.1447
81.5102
82.3841
89.8217
93.6302
101.213
106.175
102.27
109.953
89.3189
74.9448
75.4358
78.9228
74.4904
71.6909
66.969
65.3455
61.695
60.467
57.8288
56.9358
55.1655
54.6673
53.4319
52.9078
51.9267
51.4831
50.6747
50.085
49.2572
48.5406
47.7121
47.0089
46.3728
45.8511
45.3947
45.0005
44.6587
44.3113
44.006
43.6481
43.3482
42.9617
42.6529
42.2354
41.8994
41.4657
41.0815
40.6599
40.2092
39.8582
39.4394
39.2121
39.1101
38.8594
47.5282
51.3908
47.4505
43.9327
42.2981
41.6674
41.4647
41.4024
41.3958
41.4201
41.4716
41.5476
41.6454
41.7653
41.9051
42.0668
42.2487
42.4537
42.681
42.9343
43.2134
43.5229
43.8616
44.2385
44.6462
45.1088
45.5937
46.1683
46.7455
47.4663
48.17
49.0862
49.9602
51.1554
52.2395
53.8528
55.2459
57.5162
59.3873
62.5529
64.7718
68.9323
71.183
75.8555
77.1132
81.472
82.3305
89.7988
93.6265
101.324
106.332
102.506
110.207
89.1951
74.7867
75.3974
78.9524
74.498
71.6993
66.9627
65.3354
61.6735
60.445
57.8019
56.9109
55.1408
54.6454
53.4118
52.8909
51.9099
51.4694
50.6615
50.0735
49.2453
48.5283
47.6993
46.9952
46.3593
45.8385
45.3836
44.9911
44.6508
44.3045
43.9999
43.6426
43.3432
42.9569
42.6487
42.2311
41.896
41.4619
41.0788
40.6572
40.2071
39.8562
39.4367
39.2095
39.1068
38.8547
47.6566
51.5479
47.53
43.9528
42.295
41.658
41.4546
41.3932
41.3875
41.4127
41.4648
41.5413
41.6394
41.7596
41.8995
42.0612
42.243
42.4478
42.6749
42.9278
43.2065
43.5154
43.8536
44.2298
44.6366
45.0985
45.5822
46.1557
46.7314
47.4507
48.1525
49.0666
49.9381
51.1305
52.2116
53.8214
55.2109
57.4781
59.3477
62.5125
64.7303
68.8962
71.1479
75.8266
77.0753
81.4253
82.2663
89.7622
93.6042
101.413
106.455
102.684
110.365
88.9516
74.5459
75.2984
78.9311
74.4656
71.6802
66.9351
65.3072
61.6373
60.4104
57.7643
56.8766
55.1081
54.6163
53.3855
52.8683
51.8883
51.4513
50.6445
50.0585
49.2304
48.5134
47.6842
46.9794
46.3439
45.8243
45.371
44.9803
44.6417
44.2967
43.993
43.6364
43.3376
42.9515
42.644
42.2266
41.8923
41.458
41.076
40.6544
40.2049
39.8543
39.4341
39.2072
39.1038
38.8501
47.7862
51.7053
47.6093
43.9728
42.2917
41.6485
41.4445
41.3839
41.3791
41.4051
41.4579
41.535
41.6334
41.7538
41.8938
42.0556
42.2373
42.4419
42.6687
42.9212
43.1995
43.5079
43.8454
44.221
44.627
45.0879
45.5705
46.1428
46.7171
47.4347
48.1346
49.0465
49.9154
51.1049
52.1828
53.7891
55.1747
57.4385
59.3062
62.4697
64.686
68.8563
71.1085
75.7919
77.03
81.3692
82.1908
89.7106
93.5622
101.479
106.54
102.804
110.43
88.5973
74.2285
75.1415
78.8595
74.3935
71.6334
66.8861
65.2608
61.5863
60.3629
57.7161
56.8327
55.0674
54.5798
53.3529
52.84
51.8618
51.4286
50.6235
50.0399
49.2125
48.4956
47.6666
46.9614
46.3266
45.8082
45.3568
44.9681
44.6314
44.2878
43.9852
43.6294
43.3313
42.9457
42.6389
42.2216
41.8883
41.454
41.0731
40.6517
40.2029
39.8527
39.4318
39.2053
39.1012
38.8458
47.9168
51.863
47.6882
43.9925
42.2882
41.6388
41.4342
41.3745
41.3706
41.3975
41.4509
41.5285
41.6273
41.748
41.8881
42.0498
42.2314
42.4359
42.6623
42.9146
43.1923
43.5002
43.8371
44.212
44.6172
45.0772
45.5587
46.1298
46.7025
47.4184
48.1164
49.0261
49.8922
51.0788
52.1533
53.7559
55.1375
57.3975
59.2629
62.4246
64.6391
68.8129
71.065
75.7516
76.9776
81.3037
82.104
89.6441
93.5006
101.522
106.589
102.867
110.411
88.1435
73.8415
74.9305
78.7394
74.2827
71.5594
66.8162
65.1967
61.521
60.3029
57.6575
56.7797
55.0188
54.5362
53.3142
52.8061
51.8304
51.4015
50.5987
50.0178
49.1916
48.4752
47.6468
46.9413
46.3074
45.7904
45.3411
44.9545
44.6198
44.2779
43.9764
43.6217
43.3244
42.9393
42.6334
42.2165
41.8842
41.4499
41.0704
40.6493
40.2012
39.8516
39.43
39.204
39.0992
38.842
48.0485
52.0208
47.7668
44.0119
42.2845
41.6289
41.4237
41.3649
41.3619
41.3897
41.4437
41.5219
41.6211
41.7421
41.8822
42.044
42.2255
42.4298
42.656
42.9078
43.1851
43.4925
43.8288
44.2029
44.6073
45.0663
45.5467
46.1165
46.6878
47.4019
48.0979
49.0053
49.8687
51.0522
52.1233
53.7221
55.0995
57.3555
59.2181
62.3776
64.5901
68.7665
71.0179
75.7061
76.9186
81.2294
82.0066
89.5636
93.4201
101.542
106.602
102.875
110.314
87.6028
73.3931
74.6701
78.5732
74.1352
71.4596
66.7265
65.1156
61.4421
60.2313
57.5893
56.7181
54.963
54.4859
53.2698
52.7671
51.7946
51.3703
50.5704
49.9925
49.168
48.4524
47.6248
46.9193
46.2865
45.7711
45.324
44.9396
44.6073
44.2671
43.967
43.6133
43.317
42.9325
42.6277
42.2112
41.8801
41.4459
41.0678
40.6472
40.1999
39.8512
39.4289
39.2035
39.0981
38.8389
48.1812
52.179
47.845
44.0309
42.2804
41.6187
41.413
41.3551
41.3531
41.3817
41.4365
41.5152
41.6148
41.736
41.8763
42.0381
42.2195
42.4236
42.6495
42.901
43.1779
43.4847
43.8204
44.1938
44.5973
45.0554
45.5347
46.1032
46.6729
47.3853
48.0793
48.9844
49.845
51.0254
52.0931
53.6879
55.0611
57.3129
59.1724
62.3293
64.5396
68.7176
70.968
75.6562
76.8539
81.1471
81.8997
89.4699
93.3219
101.539
106.581
102.831
110.15
86.9893
72.892
74.3655
78.3638
73.9532
71.3356
66.6184
65.0188
61.3507
60.149
57.5124
56.6486
54.9006
54.4295
53.2202
52.7234
51.7547
51.3354
50.5389
49.9644
49.1421
48.4275
47.6011
46.8956
46.2642
45.7504
45.3057
44.9237
44.5938
44.2555
43.9568
43.6044
43.3092
42.9255
42.6218
42.2059
41.8761
41.4422
41.0657
40.6457
40.1993
39.8516
39.4287
39.2041
39.0979
38.8365
48.3149
52.3374
47.923
44.0495
42.276
41.6083
41.4021
41.3451
41.3441
41.3736
41.429
41.5084
41.6083
41.7298
41.8703
42.0321
42.2135
42.4174
42.643
42.8942
43.1706
43.4769
43.812
44.1847
44.5874
45.0446
45.5227
46.0899
46.6582
47.3688
48.0608
48.9636
49.8214
50.9986
52.0629
53.6537
55.0226
57.2701
59.1262
62.2802
64.4881
68.6669
70.9159
75.6025
76.7841
81.0578
81.7843
89.3643
93.2076
101.517
106.528
102.738
109.929
86.318
72.3471
74.0223
78.1148
73.7398
71.1893
66.4934
64.9077
61.248
60.0569
57.4277
56.5721
54.8322
54.3677
53.166
52.6754
51.7113
51.2972
50.5046
49.9338
49.1142
48.4007
47.5758
46.8705
46.2406
45.7286
45.2864
44.9069
44.5795
44.2432
43.9462
43.5951
43.3012
42.9184
42.616
42.2007
41.8724
41.4389
41.064
40.6449
40.1995
39.853
39.4295
39.2059
39.099
38.8351
48.4495
52.4962
48.0008
44.0678
42.2713
41.5976
41.391
41.335
41.3348
41.3653
41.4214
41.5014
41.6018
41.7236
41.8642
42.0261
42.2074
42.4111
42.6365
42.8874
43.1634
43.4692
43.8037
44.1758
44.5776
45.0338
45.5109
46.0768
46.6436
47.3524
48.0426
48.9429
49.798
50.9721
52.033
53.6197
54.9843
57.2274
59.0799
62.2307
64.4363
68.6149
70.8624
75.5459
76.7102
80.9624
81.6615
89.2481
93.0786
101.475
106.445
102.601
109.663
85.6047
71.7681
73.6465
77.8299
73.4979
71.0229
66.3533
64.7837
61.1354
59.9563
57.3361
56.4895
54.7588
54.3011
53.1078
52.6238
51.6648
51.2561
50.4679
49.901
49.0846
48.3725
47.5492
46.8444
46.2161
45.7058
45.2663
44.8894
44.5646
44.2305
43.9352
43.5855
43.2931
42.9113
42.6103
42.1958
41.8691
41.4362
41.0631
40.6449
40.2006
39.8555
39.4315
39.209
39.1015
38.8347
48.5849
52.6553
48.0784
44.0857
42.2662
41.5867
41.3796
41.3246
41.3254
41.3569
41.4137
41.4943
41.5951
41.7172
41.858
42.02
42.2012
42.4049
42.6301
42.8806
43.1562
43.4616
43.7955
44.1669
44.5679
45.0233
45.4993
46.0639
46.6293
47.3363
48.0246
48.9226
49.7751
50.9459
52.0036
53.5862
54.9465
57.1852
59.034
62.1814
64.3847
68.5624
70.8081
75.4872
76.633
80.8619
81.5325
89.1229
92.9369
101.416
106.335
102.423
109.362
84.8652
71.1646
73.2442
77.5132
73.231
70.8387
66.2002
64.6485
61.0141
59.8484
57.2389
56.4018
54.681
54.2305
53.0462
52.5691
51.6156
51.2127
50.4293
49.8666
49.0537
48.3431
47.5218
46.8173
46.1908
45.6824
45.2455
44.8713
44.5494
44.2174
43.924
43.5759
43.285
42.9043
42.6049
42.1913
41.8663
41.4341
41.0629
40.6459
40.2028
39.8593
39.4348
39.2135
39.1053
38.8354
48.7211
52.8149
48.156
44.1033
42.2607
41.5754
41.368
41.314
41.3158
41.3482
41.4058
41.4871
41.5883
41.7108
41.8518
42.0139
42.1951
42.3987
42.6236
42.8739
43.1492
43.4541
43.7874
44.1582
44.5585
45.013
45.488
46.0513
46.6154
47.3206
48.0071
48.9029
49.7527
50.9204
51.9748
53.5534
54.9096
57.1437
58.9888
62.1327
64.3338
68.51
70.7538
75.427
76.5534
80.7574
81.3987
88.9901
92.7843
101.342
106.201
102.21
109.039
84.1156
70.546
72.8217
77.1692
72.9427
70.6394
66.0359
64.5038
60.8858
59.7345
57.137
56.3098
54.5997
54.1566
52.9819
52.5119
51.5645
51.1674
50.3892
49.8308
49.0218
48.3129
47.4936
46.7897
46.165
45.6586
45.2244
44.8529
44.5338
44.2041
43.9128
43.5663
43.277
42.8976
42.5998
42.1873
41.8641
41.4328
41.0636
40.648
40.2061
39.8644
39.4395
39.2196
39.1107
38.8373
48.8581
52.9748
48.2335
44.1205
42.2549
41.5639
41.3562
41.3032
41.3061
41.3394
41.3978
41.4797
41.5814
41.7043
41.8455
42.0078
42.189
42.3925
42.6173
42.8673
43.1422
43.4468
43.7796
44.1498
44.5493
45.003
45.477
46.0391
46.6019
47.3054
47.9902
48.8837
49.731
50.8956
51.947
53.5216
54.8737
57.1034
58.9447
62.0849
64.2839
68.458
70.6999
75.3662
76.4723
80.6499
81.2611
88.8511
92.6226
101.255
106.046
101.966
108.706
83.3718
69.9218
72.3852
76.8023
72.6368
70.4276
65.8626
64.3513
60.7517
59.6158
57.0316
56.2146
54.5158
54.0802
52.9155
52.4528
51.5118
51.1207
50.348
49.7941
48.9893
48.2822
47.4651
46.7618
46.1389
45.6344
45.203
44.8343
44.5181
44.1908
43.9016
43.5569
43.2693
42.8912
42.5952
42.1838
41.8626
41.4323
41.0652
40.6512
40.2107
39.871
39.4456
39.2272
39.1176
38.8403
48.9958
53.1353
48.311
44.1375
42.2488
41.5521
41.3442
41.2922
41.2961
41.3305
41.3897
41.4723
41.5745
41.6978
41.8392
42.0017
42.1829
42.3863
42.611
42.8608
43.1354
43.4396
43.7719
44.1416
44.5405
44.9933
45.4664
46.0274
46.5888
47.2908
47.9739
48.8652
49.7101
50.8717
51.9201
53.4908
54.839
57.0643
58.902
62.0385
64.2356
68.4071
70.6471
75.3053
76.3905
80.5404
81.1211
88.7076
92.4538
101.156
105.875
101.696
108.373
82.6487
69.3011
71.9407
76.4172
72.3171
70.2058
65.6824
64.1929
60.6136
59.4937
56.9237
56.1172
54.43
54.0019
52.8477
52.3923
51.4581
51.0731
50.3062
49.7569
48.9566
48.2513
47.4365
46.7338
46.1128
45.6102
45.1816
44.8156
44.5025
44.1776
43.8905
43.5476
43.2619
42.8853
42.5911
42.181
41.8618
41.4327
41.0679
40.6555
40.2165
39.879
39.4532
39.2364
39.1261
38.8446
49.1342
53.2962
48.3885
44.1542
42.2424
41.54
41.3319
41.2809
41.2859
41.3213
41.3814
41.4647
41.5675
41.6912
41.8329
41.9955
42.1768
42.3803
42.6048
42.8545
43.1288
43.4326
43.7645
44.1336
44.5319
44.984
45.4562
46.0161
46.5764
47.2767
47.9582
48.8474
49.6901
50.8487
51.8943
53.4612
54.8057
57.0268
58.8608
61.9938
64.1891
68.3576
70.5958
75.2451
76.3087
80.4297
80.9796
88.5609
92.2798
101.049
105.689
101.406
108.052
81.9607
68.6926
71.494
76.0187
71.9873
69.9768
65.4973
64.0303
60.4726
59.3694
56.8145
56.0184
54.3431
53.9226
52.7791
52.3311
51.4038
51.025
50.2641
49.7194
48.9238
48.2205
47.4081
46.706
46.0868
45.5862
45.1603
44.7971
44.487
44.1646
43.8797
43.5387
43.2549
42.8798
42.5877
42.1789
41.8618
41.4341
41.0716
40.6611
40.2236
39.8885
39.4623
39.2472
39.1361
38.85
49.2732
53.4576
48.4661
44.1705
42.2356
41.5276
41.3193
41.2695
41.2756
41.3121
41.3729
41.457
41.5603
41.6845
41.8266
41.9894
42.1708
42.3742
42.5987
42.8482
43.1223
43.4258
43.7573
44.126
44.5237
44.9751
45.4464
46.0053
46.5645
47.2633
47.9433
48.8305
49.6711
50.8268
51.8697
53.433
54.7738
56.9908
58.8214
61.9508
64.1447
68.3099
70.5465
75.1861
76.2275
80.3189
80.8378
88.4124
92.1024
100.935
105.493
101.101
107.753
81.3209
68.1043
71.0507
75.6115
71.6513
69.7431
65.3094
63.8651
60.3303
59.244
56.7049
55.9192
54.2559
53.843
52.7102
52.2697
51.3495
50.9768
50.2221
49.6822
48.8915
48.19
47.3801
46.6785
46.0612
45.5624
45.1392
44.7788
44.4717
44.1519
43.8693
43.5303
43.2484
42.8749
42.5849
42.1775
41.8627
41.4364
41.0763
40.6678
40.232
39.8994
39.4729
39.2595
39.1477
38.8565
49.4129
53.6195
48.5437
44.1867
42.2285
41.5149
41.3066
41.2579
41.2651
41.3026
41.3644
41.4492
41.5531
41.6778
41.8202
41.9833
42.1648
42.3683
42.5927
42.8421
43.116
43.4192
43.7504
44.1186
44.5158
44.9665
45.4371
45.995
46.5531
47.2505
47.9292
48.8144
49.6529
50.8059
51.8464
53.4061
54.7436
56.9566
58.784
61.91
64.1026
68.2644
70.4996
75.1287
76.1477
80.2087
80.6967
88.2636
91.9234
100.816
105.29
100.786
107.484
80.7409
67.5436
70.6158
75.2
71.3125
69.5073
65.1205
63.6991
60.188
59.1188
56.5958
55.8204
54.1692
53.7636
52.6418
52.2086
51.2957
50.929
50.1806
49.6454
48.8597
48.1602
47.3527
46.6516
46.0361
45.5391
45.1186
44.7609
44.4569
44.1396
43.8594
43.5223
43.2425
42.8707
42.5827
42.1769
41.8645
41.4396
41.0821
40.6758
40.2417
39.9118
39.4849
39.2733
39.1606
38.8641
49.5531
53.7819
48.6214
44.2025
42.2211
41.502
41.2936
41.246
41.2544
41.293
41.3557
41.4413
41.5458
41.671
41.8137
41.9771
42.1588
42.3624
42.5868
42.8361
43.1098
43.4129
43.7437
44.1115
44.5082
44.9584
45.4283
45.9852
46.5424
47.2384
47.9158
48.7992
49.6358
50.7862
51.8243
53.3807
54.715
56.9242
58.7486
61.8713
64.063
68.2211
70.4553
75.0735
76.0698
80.0998
80.5571
88.1155
91.7445
100.695
105.083
100.468
107.255
80.2312
67.0172
70.1942
74.7888
70.9745
69.2717
64.9325
63.5337
60.0468
58.9947
56.4882
55.7228
54.0835
53.685
52.5742
52.1482
51.2426
50.882
50.14
49.6095
48.8289
48.1312
47.326
46.6255
46.0116
45.5163
45.0984
44.7435
44.4425
44.1277
43.8499
43.5148
43.2372
42.867
42.5813
42.177
41.8671
41.4438
41.089
40.6849
40.2526
39.9255
39.4983
39.2886
39.175
38.8727
49.694
53.9448
48.6993
44.2182
42.2134
41.4889
41.2804
41.234
41.2435
41.2833
41.3469
41.4333
41.5385
41.6642
41.8073
41.971
42.1528
42.3565
42.5809
42.8302
43.1038
43.4067
43.7372
44.1047
44.5009
44.9506
45.4199
45.976
46.5322
47.2269
47.9031
48.7847
49.6196
50.7675
51.8035
53.3566
54.6881
56.8937
58.7153
61.8349
64.026
68.1804
70.4139
75.0207
75.9943
79.9929
80.42
87.9693
91.5671
100.574
104.876
100.15
107.072
79.8001
66.5309
69.79
74.3819
70.6404
69.0385
64.7471
63.3703
59.908
58.8728
56.3829
55.627
53.9995
53.6079
52.5079
52.089
51.1907
50.8361
50.1005
49.5746
48.7991
48.1033
47.3004
46.6002
45.988
45.4943
45.079
44.7267
44.4287
44.1165
43.841
43.508
43.2325
42.8641
42.5806
42.178
41.8705
41.449
41.0968
40.6951
40.2647
39.9405
39.5129
39.3051
39.1906
38.8822
49.8354
54.1082
48.7772
44.2337
42.2054
41.4755
41.267
41.2218
41.2325
41.2734
41.3379
41.4252
41.531
41.6573
41.8008
41.9648
42.1469
42.3507
42.5752
42.8244
43.0979
43.4006
43.731
44.0982
44.494
44.9432
45.4119
45.9672
46.5226
47.2161
47.8912
48.7712
49.6044
50.7499
51.784
53.334
54.6628
56.8649
58.6842
61.8008
63.9917
68.1424
70.3754
74.9707
75.9215
79.8887
80.2859
87.8261
91.3927
100.453
104.671
99.8378
106.942
79.4545
66.0894
69.4067
73.9833
70.3133
68.8099
64.5658
63.2102
59.7725
58.7539
56.2804
55.5337
53.9177
53.5327
52.4435
52.0314
51.1404
50.7915
50.0623
49.541
48.7706
48.0766
47.2759
46.576
45.9652
45.4732
45.0602
44.7106
44.4155
44.1058
43.8328
43.5018
43.2284
42.8618
42.5806
42.1797
41.8748
41.4551
41.1056
40.7064
40.2778
39.9567
39.5288
39.3229
39.2074
38.8926
49.9773
54.2722
48.8553
44.249
42.1972
41.4618
41.2534
41.2094
41.2213
41.2633
41.3288
41.417
41.5235
41.6503
41.7943
41.9586
42.1409
42.3449
42.5694
42.8187
43.0922
43.3948
43.7249
44.0919
44.4874
44.9361
45.4043
45.9588
46.5135
47.2059
47.88
48.7583
49.5901
50.7334
51.7656
53.3128
54.639
56.8379
58.6551
61.769
63.96
68.107
70.3401
74.9237
75.8519
79.7874
80.1555
87.6866
91.2226
100.336
104.471
99.536
106.869
79.1995
65.6968
69.0476
73.5966
69.9956
68.5875
64.3898
63.0546
59.6412
58.6388
56.1816
55.4435
53.8386
53.4599
52.3812
51.9758
51.0919
50.7487
50.0258
49.5089
48.7436
48.0512
47.2526
46.553
45.9435
45.4529
45.0423
44.6952
44.4031
44.0959
43.8252
43.4962
43.225
42.8602
42.5813
42.1821
41.8798
41.4619
41.1153
40.7187
40.2921
39.974
39.5457
39.3418
39.2252
38.9037
50.1198
54.4366
48.9335
44.2641
42.1887
41.448
41.2396
41.1968
41.2099
41.2532
41.3196
41.4087
41.5159
41.6433
41.7877
41.9524
42.135
42.3391
42.5638
42.8131
43.0865
43.3891
43.719
44.0858
44.481
44.9293
45.397
45.9509
46.5049
47.1962
47.8694
48.7463
49.5767
50.7178
51.7484
53.2928
54.6168
56.8126
58.628
61.7394
63.9308
68.0743
70.308
74.8798
75.7856
79.6896
80.0293
87.5515
91.0577
100.223
104.278
99.2487
106.857
79.0385
65.3562
68.7151
73.2248
69.6897
68.3731
64.2205
62.9044
59.5148
58.528
56.0868
55.3568
53.7626
53.3898
52.3215
51.9223
51.0454
50.7077
49.9911
49.4784
48.7181
48.0273
47.2307
46.5311
45.9229
45.4337
45.0252
44.6807
44.3913
44.0866
43.8183
43.4913
43.2223
42.8593
42.5828
42.1853
41.8857
41.4696
41.1259
40.7319
40.3072
39.9923
39.5636
39.3617
39.2439
38.9155
50.2628
54.6016
49.0118
44.279
42.18
41.4339
41.2256
41.1841
41.1984
41.2429
41.3103
41.4003
41.5082
41.6362
41.7811
41.9462
42.129
42.3334
42.5582
42.8076
43.081
43.3835
43.7133
44.0799
44.4748
44.9228
45.3901
45.9433
46.4968
47.187
47.8594
48.7349
49.5641
50.7031
51.7323
53.274
54.596
56.7889
58.6028
61.7121
63.9042
68.0443
70.279
74.8392
75.7228
79.5956
79.9076
87.4216
90.899
100.116
104.095
98.9797
106.908
78.9731
65.0696
68.4112
72.8708
69.3976
68.1679
64.0587
62.7605
59.3939
58.4221
55.9965
55.274
53.6899
53.3227
52.2644
51.8712
51.0012
50.6689
49.9583
49.4498
48.6943
48.0049
47.2101
46.5105
45.9034
45.4154
45.0091
44.6669
44.3803
44.0781
43.8121
43.487
43.2202
42.859
42.5848
42.1891
41.8922
41.4781
41.1372
40.7459
40.3232
40.0116
39.5824
39.3825
39.2635
38.9278
50.4063
54.767
49.0904
44.2939
42.1711
41.4197
41.2114
41.1712
41.1868
41.2324
41.3009
41.3918
41.5004
41.629
41.7744
41.9399
42.1231
42.3277
42.5526
42.8021
43.0755
43.378
43.7077
44.0742
44.4689
44.9165
45.3835
45.9361
46.489
47.1783
47.8499
48.7241
49.5521
50.6893
51.7171
53.2563
54.5765
56.7666
58.5795
61.6867
63.8799
68.0169
70.2531
74.8018
75.6636
79.5054
79.7908
87.2973
90.7473
100.016
103.923
98.7324
107.025
79.0036
64.8385
68.1374
72.5368
69.1209
67.973
63.9052
62.6234
59.2791
58.3216
55.911
55.1953
53.6209
53.2589
52.2103
51.8228
50.9594
50.6322
49.9276
49.423
48.6723
47.9842
47.191
46.4913
45.8851
45.3982
44.9939
44.654
44.3701
44.0702
43.8065
43.4834
43.2188
42.8593
42.5875
42.1936
41.8993
41.4872
41.1493
40.7606
40.34
40.0316
39.602
39.404
39.2837
38.9405
50.5503
54.9329
49.169
44.3086
42.162
41.4053
41.1971
41.1582
41.175
41.2219
41.2914
41.3832
41.4925
41.6218
41.7677
41.9336
42.1171
42.3219
42.547
42.7966
43.07
43.3725
43.7022
44.0686
44.4631
44.9104
45.3771
45.9292
46.4816
47.17
47.8409
48.7138
49.5409
50.6762
51.7028
53.2397
54.5581
56.7457
58.5578
61.6633
63.8578
67.9919
70.2301
74.7676
75.6081
79.4194
79.6789
87.1788
90.6031
99.9234
103.763
98.5096
107.207
79.1287
64.6631
67.8944
72.2247
68.8608
67.7894
63.7607
62.4937
59.1708
58.2267
55.8304
55.1209
53.5556
53.1984
52.1592
51.7771
50.9202
50.5979
49.899
49.3982
48.652
47.9651
47.1733
46.4733
45.8679
45.3821
44.9796
44.6419
44.3607
44.0632
43.8017
43.4805
43.2179
42.8603
42.5908
42.1986
41.907
41.4968
41.1619
40.7759
40.3574
40.0523
39.6222
39.4262
39.3044
38.9536
50.6948
55.0993
49.2479
44.3232
42.1528
41.3907
41.1827
41.1451
41.1631
41.2112
41.2818
41.3745
41.4846
41.6145
41.7609
41.9272
42.111
42.3161
42.5414
42.7911
43.0646
43.3671
43.6968
44.0631
44.4574
44.9045
45.3709
45.9225
46.4745
47.162
47.8324
48.704
49.5301
50.6637
51.6892
53.2239
54.5408
56.726
58.5376
61.6416
63.8378
67.9693
70.21
74.7366
75.5563
79.3374
79.5721
87.0664
90.4667
99.8397
103.618
98.3138
107.454
79.3459
64.5434
67.6828
71.936
68.6184
67.6177
63.6255
62.3719
59.069
58.1375
55.755
55.0511
53.4942
53.1415
52.1113
51.7342
50.8835
50.5659
49.8725
49.3753
48.6335
47.9476
47.157
46.4567
45.852
45.367
44.9662
44.6307
44.352
44.0568
43.7974
43.4781
43.2177
42.8617
42.5946
42.2041
41.9153
41.507
41.1751
40.7918
40.3753
40.0736
39.643
39.4489
39.3256
38.9669
50.8398
55.2661
49.3268
44.3377
42.1433
41.3759
41.1681
41.1318
41.1511
41.2005
41.272
41.3657
41.4765
41.6071
41.754
41.9208
42.1049
42.3103
42.5357
42.7856
43.0592
43.3618
43.6914
44.0576
44.4518
44.8987
45.3648
45.916
46.4676
47.1543
47.8241
48.6946
49.5199
50.6518
51.6763
53.2088
54.5244
56.7073
58.5188
61.6216
63.8196
67.9488
70.1925
74.7087
75.508
79.2596
79.4703
86.9602
90.3386
99.7652
103.487
98.1468
107.765
79.6519
64.4782
67.5025
71.6716
68.3943
67.4583
63.5
62.258
58.9741
58.0543
55.6848
54.9857
53.4367
53.0882
52.0665
51.6942
50.8494
50.5363
49.8483
49.3544
48.6168
47.9317
47.1422
46.4414
45.8371
45.353
44.9538
44.6204
44.3441
44.0511
43.7939
43.4764
43.2179
42.8637
42.5989
42.2101
41.924
41.5177
41.1887
40.8082
40.3937
40.0954
39.6641
39.4721
39.3471
38.9804
50.9852
55.4334
49.406
44.3522
42.1338
41.361
41.1533
41.1184
41.139
41.1896
41.2622
41.3568
41.4684
41.5997
41.7471
41.9143
42.0988
42.3044
42.5301
42.7801
43.0538
43.3564
43.686
44.0522
44.4463
44.893
45.3589
45.9096
46.4609
47.1468
47.8161
48.6854
49.51
50.6403
51.664
53.1944
54.5088
56.6896
58.5012
61.6029
63.803
67.9303
70.1774
74.6837
75.4632
79.1858
79.3735
86.8603
90.2188
99.7003
103.372
98.01
108.137
80.0421
64.4662
67.3532
71.4323
68.1888
67.3115
63.3843
62.1522
58.8859
57.977
55.6198
54.9249
53.3831
53.0384
52.025
51.657
50.8179
50.5091
49.8262
49.3354
48.6018
47.9174
47.1287
46.4273
45.8233
45.3399
44.9422
44.6108
44.3369
44.0461
43.7909
43.4751
43.2187
42.8661
42.6036
42.2165
41.9331
41.5287
41.2027
40.8249
40.4125
40.1176
39.6857
39.4955
39.3688
38.994
51.131
55.6011
49.4853
44.3666
42.124
41.346
41.1385
41.1049
41.1268
41.1786
41.2523
41.3478
41.4602
41.5921
41.7401
41.9078
42.0926
42.2985
42.5244
42.7746
43.0483
43.351
43.6807
44.0468
44.4408
44.8873
45.3531
45.9033
46.4543
47.1394
47.8083
48.6766
49.5004
50.6292
51.6521
53.1805
54.4938
56.6725
58.4846
61.5855
63.7879
67.9135
70.1646
74.6615
75.4217
79.1159
79.2815
86.7664
90.1073
99.6452
103.273
97.9043
108.569
80.5116
64.5053
67.2339
71.2181
68.0019
67.1773
63.2782
62.0545
58.8044
57.9056
55.5598
54.8684
53.3334
52.9922
51.9865
51.6226
50.7889
50.4843
49.8061
49.3183
48.5885
47.9045
47.1165
46.4144
45.8106
45.3279
44.9315
44.602
44.3304
44.0417
43.7884
43.4744
43.2199
42.869
42.6086
42.2232
41.9425
41.54
41.217
40.8419
40.4316
40.14
39.7074
39.5192
39.3906
39.0077
51.2772
55.7692
49.5648
44.3809
42.1142
41.3308
41.1235
41.0912
41.1144
41.1676
41.2423
41.3388
41.4519
41.5845
41.733
41.9012
42.0863
42.2925
42.5186
42.769
43.0428
43.3456
43.6753
44.0414
44.4353
44.8817
45.3472
45.8971
46.4478
47.1322
47.8006
48.6678
49.4911
50.6183
51.6405
53.167
54.4793
56.656
58.4688
61.5691
63.7741
67.8984
70.1538
74.6418
75.3833
79.0497
79.1942
86.6786
90.004
99.6
103.19
97.8303
109.056
81.0547
64.593
67.1438
71.0291
67.8336
67.0555
63.1818
61.9648
58.7296
57.8398
55.5048
54.8163
53.2873
52.9494
51.9511
51.591
50.7624
50.4617
49.7881
49.3031
48.5767
47.8932
47.1056
46.4026
45.7989
45.3167
44.9216
44.594
44.3245
44.0378
43.7865
43.4741
43.2215
42.8722
42.614
42.2303
41.9522
41.5516
41.2316
40.8592
40.4509
40.1627
39.7294
39.543
39.4125
39.0212
51.4239
55.9377
49.6445
44.3952
42.1043
41.3156
41.1085
41.0775
41.102
41.1564
41.2322
41.3296
41.4436
41.5768
41.7259
41.8945
42.08
42.2865
42.5128
42.7633
43.0373
43.3401
43.6698
44.0359
44.4298
44.876
45.3414
45.8909
46.4413
47.125
47.793
48.6592
49.4818
50.6076
51.6291
53.1537
54.4652
56.64
58.4536
61.5535
63.7612
67.8846
70.1449
74.6245
75.3478
78.9872
79.1112
86.5965
89.9087
99.5646
103.124
97.788
109.596
81.6657
64.7267
67.0815
70.8648
67.6835
66.946
63.0947
61.8829
58.6611
57.7796
55.4545
54.7684
53.2449
52.9098
51.9186
51.5619
50.7382
50.4412
49.772
49.2895
48.5665
47.8831
47.0958
46.3918
45.7881
45.3063
44.9124
44.5866
44.3193
44.0345
43.785
43.4742
43.2234
42.8757
42.6197
42.2375
41.9621
41.5633
41.2463
40.8765
40.4704
40.1855
39.7514
39.5669
39.4344
39.0347
51.571
56.1066
49.7243
44.4095
42.0942
41.3002
41.0933
41.0637
41.0895
41.1452
41.222
41.3204
41.4351
41.5691
41.7187
41.8877
42.0735
42.2803
42.5068
42.7575
43.0316
43.3346
43.6643
44.0304
44.4242
44.8703
45.3355
45.8846
46.4348
47.1178
47.7854
48.6506
49.4727
50.597
51.6179
53.1406
54.4513
56.6243
58.439
61.5387
63.7492
67.8719
70.1374
74.6094
75.315
78.9279
79.0323
86.5198
89.8211
99.5388
103.072
97.7771
110.185
82.3385
64.9035
67.0457
70.7245
67.5509
66.8483
63.0166
61.8084
58.5986
57.7247
55.4087
54.7244
53.2058
52.8735
51.8888
51.5354
50.7163
50.4228
49.7577
49.2776
48.5576
47.8743
47.087
46.382
45.7781
45.2968
44.9039
44.5798
44.3145
44.0317
43.784
43.4747
43.2257
42.8794
42.6256
42.2449
41.9722
41.5752
41.2612
40.894
40.4899
40.2084
39.7734
39.5909
39.4562
39.048
51.7184
56.2759
49.8043
44.4238
42.0841
41.2848
41.0781
41.0499
41.077
41.1339
41.2118
41.3111
41.4266
41.5612
41.7113
41.8808
42.067
42.2741
42.5008
42.7517
43.0259
43.3289
43.6587
44.0248
44.4185
44.8644
45.3296
45.8783
46.4282
47.1105
47.7778
48.6419
49.4635
50.5864
51.6067
53.1276
54.4375
56.6087
58.4248
61.5244
63.7379
67.8603
70.1314
74.5962
75.2847
78.8717
78.9573
86.4483
89.7408
99.5224
103.036
97.7969
110.818
83.067
65.1201
67.0346
70.6073
67.4352
66.762
62.9471
61.7411
58.542
57.6748
55.3671
54.6841
53.1698
52.8401
51.8617
51.5111
50.6964
50.4064
49.7452
49.2672
48.55
47.8667
47.0792
46.3731
45.7689
45.2879
44.896
44.5736
44.3103
44.0294
43.7833
43.4755
43.2282
42.8834
42.6316
42.2525
41.9823
41.5871
41.2761
40.9115
40.5095
40.2313
39.7955
39.6148
39.4779
39.0612
51.8663
56.4456
49.8845
44.438
42.0739
41.2693
41.0628
41.0359
41.0643
41.1225
41.2015
41.3018
41.418
41.5533
41.7039
41.8739
42.0604
42.2678
42.4947
42.7457
43.0201
43.3232
43.653
44.019
44.4127
44.8585
45.3235
45.8719
46.4216
47.1032
47.7701
48.6332
49.4543
50.5758
51.5956
53.1146
54.4238
56.5932
58.4108
61.5104
63.727
67.8495
70.1265
74.5848
75.2566
78.8184
78.8857
86.3816
89.6675
99.515
103.015
97.8466
111.493
83.8453
65.3735
67.0468
70.5122
67.3356
66.6865
62.8857
61.6806
58.4908
57.6296
55.3295
54.6473
53.1369
52.8095
51.837
51.4891
50.6785
50.3917
49.7342
49.2582
48.5436
47.8601
47.0723
46.365
45.7604
45.2797
44.8887
44.5679
44.3065
44.0274
43.7829
43.4766
43.2309
42.8876
42.6378
42.2602
41.9926
41.5991
41.2911
40.929
40.5291
40.2541
39.8175
39.6386
39.4994
39.0741
52.0145
56.6156
49.9648
44.4523
42.0637
41.2537
41.0474
41.0219
41.0516
41.1111
41.1911
41.2924
41.4093
41.5453
41.6965
41.8668
42.0537
42.2614
42.4885
42.7397
43.0142
43.3173
43.6471
44.0132
44.4068
44.8525
45.3174
45.8654
46.4149
47.0958
47.7623
48.6244
49.445
50.5651
51.5843
53.1015
54.41
56.5776
58.3969
61.4967
63.7165
67.8393
70.1225
74.5749
75.2306
78.7677
78.8173
86.3194
89.6007
99.5162
103.008
97.925
112.205
84.6678
65.6606
67.0803
70.4381
67.2512
66.6211
62.8319
61.6265
58.4446
57.5888
55.2956
54.6137
53.1067
52.7814
51.8146
51.4691
50.6625
50.3787
49.7246
49.2505
48.5383
47.8544
47.0662
46.3576
45.7526
45.272
44.8819
44.5626
44.3031
44.0258
43.7829
43.478
43.2338
42.8919
42.6441
42.2679
42.0029
41.611
41.3061
40.9464
40.5487
40.277
39.8394
39.6624
39.5208
39.0868
52.163
56.7859
50.0454
44.4666
42.0533
41.238
41.032
41.0078
41.0389
41.0996
41.1807
41.2829
41.4006
41.5372
41.6889
41.8597
42.047
42.2549
42.4822
42.7336
43.0081
43.3113
43.6412
44.0072
44.4008
44.8463
45.3111
45.8587
46.408
47.0882
47.7544
48.6154
49.4355
50.5542
51.5729
53.0882
54.3961
56.5619
58.3831
61.4832
63.7062
67.8296
70.1194
74.5664
75.2063
78.7193
78.7517
86.2612
89.5399
99.5254
103.015
98.0309
112.951
85.5291
65.9782
67.1337
70.3835
67.181
66.5652
62.7852
61.5782
58.4031
57.5521
55.265
54.5831
53.0789
52.7558
51.7942
51.451
50.648
50.3673
49.7163
49.2439
48.5339
47.8496
47.0608
46.3508
45.7452
45.2649
44.8755
44.5578
44.3
44.0245
43.783
43.4795
43.2369
42.8963
42.6505
42.2757
42.0132
41.623
41.321
40.9638
40.5681
40.2997
39.8612
39.686
39.542
39.0993
52.3119
56.9566
50.1261
44.4809
42.043
41.2223
41.0165
40.9937
41.026
41.088
41.1702
41.2733
41.3918
41.529
41.6813
41.8525
42.0401
42.2482
42.4758
42.7273
43.002
43.3053
43.6351
44.0011
44.3947
44.84
45.3047
45.8519
46.4009
47.0804
47.7463
48.6063
49.4259
50.5431
51.5613
53.0747
54.382
56.546
58.3691
61.4696
63.6959
67.8203
70.1168
74.5591
75.1836
78.6729
78.6886
86.2066
89.4847
99.5422
103.034
98.1628
113.727
86.4244
66.3234
67.2051
70.3471
67.1239
66.5181
62.745
61.5354
58.3659
57.519
55.2375
54.5551
53.0535
52.7323
51.7757
51.4346
50.6351
50.3572
49.7093
49.2384
48.5304
47.8455
47.0559
46.3445
45.7384
45.2582
44.8695
44.5533
44.2972
44.0234
43.7834
43.4811
43.2401
42.9008
42.6569
42.2835
42.0235
41.6349
41.3359
40.9811
40.5875
40.3224
39.8829
39.7096
39.5629
39.1115
52.4611
57.1275
50.2069
44.4952
42.0326
41.2065
41.0009
40.9795
41.0132
41.0764
41.1596
41.2637
41.3829
41.5208
41.6735
41.8452
42.0331
42.2415
42.4693
42.7209
42.9957
43.299
43.6289
43.9949
44.3884
44.8336
45.2981
45.8449
46.3937
47.0725
47.738
48.5969
49.416
50.5318
51.5495
53.061
54.3677
56.5298
58.355
61.456
63.6856
67.8112
70.1147
74.5528
75.1622
78.6284
78.6277
86.1554
89.4345
99.5661
103.064
98.3191
114.531
87.349
66.6934
67.293
70.3276
67.0791
66.4791
62.7108
61.4977
58.3326
57.4894
55.2127
54.5297
53.0301
52.7108
51.7589
51.4197
50.6236
50.3484
49.7033
49.2338
48.5276
47.8421
47.0516
46.3387
45.7319
45.2518
44.8638
44.549
44.2947
44.0226
43.784
43.483
43.2433
42.9053
42.6633
42.2912
42.0337
41.6467
41.3507
40.9983
40.6069
40.3449
39.9044
39.733
39.5836
39.1235
52.6106
57.2988
50.288
44.5096
42.0221
41.1907
40.9853
40.9653
41.0002
41.0648
41.149
41.254
41.374
41.5125
41.6658
41.8378
42.0261
42.2348
42.4627
42.7145
42.9893
43.2927
43.6226
43.9885
44.3819
44.827