/*--------------------------------*- C++ -*----------------------------------*\
| =========                 |                                                 |
| \\      /  F ield         | OpenFOAM: The Open Source CFD Toolbox           |
|  \\    /   O peration     | Version:  2412                                  |
|   \\  /    A nd           | Website:  www.openfoam.com                      |
|    \\/     M anipulation  |                                                 |
\*---------------------------------------------------------------------------*/
FoamFile
{
    version     2.0;
    format      ascii;
    arch        "LSB;label=32;scalar=64";
    class       volScalarField;
    location    "0.1";
    object      nut;
}
// * * * * * * * * * * * * * * * * * * * * * * * * * * * * * * * * * * * * * //

dimensions      [0 2 -1 0 0 0 0];

internalField   nonuniform List<scalar> 
12960
(
0.356729
0.35097
0.332574
0.328855
0.333541
0.337581
0.33948
0.340135
0.340362
0.340482
0.340596
0.340729
0.340877
0.341049
0.341238
0.341453
0.341687
0.341948
0.342232
0.342547
0.342889
0.343266
0.343673
0.344125
0.344607
0.345152
0.345714
0.346381
0.347035
0.34787
0.348645
0.349703
0.350628
0.351987
0.353065
0.354858
0.356162
0.358602
0.360211
0.3634
0.364892
0.36887
0.369823
0.373951
0.373374
0.377266
0.376524
0.383423
0.384548
0.390255
0.390672
0.383787
0.377973
0.343302
0.341074
0.354229
0.363842
0.359592
0.360835
0.357596
0.358852
0.355458
0.356054
0.353426
0.353692
0.352008
0.352327
0.350944
0.350829
0.349808
0.349742
0.348802
0.348345
0.347375
0.346714
0.345782
0.345157
0.344594
0.344175
0.343779
0.343445
0.343132
0.342773
0.342474
0.342047
0.34177
0.341258
0.340999
0.340406
0.340138
0.339509
0.339172
0.338592
0.338088
0.337798
0.337304
0.337389
0.337719
0.33727
0.356825
0.350974
0.332329
0.328581
0.333383
0.337516
0.339454
0.340123
0.340354
0.340475
0.34059
0.340722
0.340871
0.341043
0.341232
0.341447
0.34168
0.341941
0.342224
0.342539
0.34288
0.343257
0.343663
0.344114
0.344595
0.345139
0.3457
0.346366
0.347018
0.347852
0.348625
0.349681
0.350603
0.35196
0.353036
0.354826
0.356129
0.358567
0.360179
0.363368
0.364862
0.368849
0.369803
0.373937
0.373347
0.377231
0.376473
0.383408
0.384543
0.390348
0.390784
0.384022
0.378388
0.343555
0.341367
0.354475
0.363988
0.359627
0.360857
0.357596
0.358842
0.355437
0.356034
0.353401
0.35367
0.351988
0.352307
0.350927
0.350814
0.349792
0.34973
0.348789
0.348334
0.347362
0.3467
0.345768
0.34514
0.344579
0.344162
0.343769
0.343437
0.343126
0.342767
0.342469
0.342042
0.341765
0.341253
0.340995
0.340402
0.340136
0.339505
0.339171
0.33859
0.338087
0.337797
0.3373
0.337387
0.337714
0.337261
0.356917
0.350975
0.332082
0.328304
0.333224
0.33745
0.339429
0.340111
0.340345
0.340468
0.340583
0.340716
0.340864
0.341037
0.341225
0.34144
0.341673
0.341934
0.342216
0.342531
0.342871
0.343247
0.343653
0.344103
0.344583
0.345126
0.345685
0.34635
0.347001
0.347832
0.348604
0.349657
0.350577
0.351931
0.353005
0.354792
0.356093
0.358529
0.360145
0.363332
0.364828
0.368823
0.369778
0.373918
0.373313
0.377187
0.376411
0.38338
0.384524
0.390425
0.390872
0.3842
0.378736
0.343685
0.341573
0.354678
0.364095
0.359641
0.36087
0.357588
0.358823
0.35541
0.356008
0.35337
0.353642
0.351962
0.352281
0.350906
0.350794
0.349773
0.349714
0.348773
0.34832
0.347347
0.346684
0.345752
0.345121
0.344562
0.344146
0.343757
0.343427
0.343118
0.342759
0.342462
0.342036
0.34176
0.341248
0.340991
0.340397
0.340133
0.3395
0.33917
0.338588
0.338086
0.337796
0.337296
0.337385
0.337708
0.337252
0.357005
0.350972
0.331832
0.328026
0.333064
0.337383
0.339403
0.340099
0.340337
0.340461
0.340576
0.34071
0.340858
0.34103
0.341219
0.341433
0.341666
0.341926
0.342208
0.342522
0.342861
0.343237
0.343642
0.344091
0.34457
0.345111
0.34567
0.346333
0.346982
0.347812
0.348581
0.349633
0.35055
0.351901
0.352972
0.354756
0.356055
0.358488
0.360106
0.363292
0.36479
0.368792
0.369748
0.373891
0.373272
0.377133
0.376339
0.383342
0.38449
0.390487
0.390934
0.384322
0.379026
0.343711
0.341701
0.354842
0.364165
0.359636
0.360875
0.357572
0.358796
0.355376
0.355974
0.353334
0.353608
0.351931
0.35225
0.350881
0.350771
0.34975
0.349694
0.348755
0.348303
0.34733
0.346665
0.345733
0.3451
0.344544
0.344129
0.343743
0.343415
0.343109
0.342751
0.342455
0.342029
0.341753
0.341241
0.340986
0.340391
0.34013
0.339496
0.339169
0.338585
0.338085
0.337795
0.337292
0.337383
0.337702
0.337242
0.357091
0.350965
0.331578
0.327745
0.332903
0.337317
0.339377
0.340087
0.340328
0.340453
0.340569
0.340703
0.340851
0.341023
0.341211
0.341426
0.341658
0.341918
0.342199
0.342512
0.342851
0.343226
0.34363
0.344078
0.344556
0.345097
0.345653
0.346315
0.346962
0.34779
0.348558
0.349607
0.350521
0.351869
0.352938
0.354718
0.356014
0.358445
0.360064
0.363249
0.364748
0.368756
0.369713
0.373858
0.373222
0.377071
0.376258
0.383291
0.384441
0.390532
0.390972
0.384391
0.379264
0.343652
0.341764
0.35497
0.364199
0.359614
0.360872
0.35755
0.358761
0.355336
0.355935
0.353292
0.353569
0.351896
0.352214
0.350851
0.350743
0.349723
0.349671
0.348733
0.348284
0.347311
0.346643
0.345713
0.345077
0.344524
0.344111
0.343728
0.343402
0.343099
0.342742
0.342446
0.342021
0.341746
0.341235
0.340981
0.340386
0.340127
0.339492
0.339167
0.338583
0.338084
0.337794
0.337289
0.337382
0.337696
0.337232
0.357173
0.350954
0.331321
0.327463
0.332742
0.33725
0.339351
0.340074
0.340319
0.340445
0.340561
0.340695
0.340844
0.341016
0.341204
0.341418
0.34165
0.341909
0.34219
0.342502
0.342841
0.343215
0.343618
0.344065
0.344542
0.345081
0.345636
0.346297
0.346942
0.347768
0.348533
0.349579
0.350491
0.351836
0.352902
0.354678
0.355971
0.358399
0.360019
0.363203
0.364703
0.368716
0.369673
0.373818
0.373165
0.377
0.376167
0.383231
0.384379
0.390562
0.390986
0.38441
0.379463
0.343532
0.341775
0.35507
0.364202
0.359577
0.360863
0.357521
0.358719
0.355291
0.355889
0.353246
0.353525
0.351857
0.352173
0.350819
0.350712
0.349694
0.349645
0.348709
0.348262
0.347289
0.34662
0.345691
0.345052
0.344502
0.344091
0.343712
0.343388
0.343088
0.342731
0.342437
0.342013
0.341739
0.341227
0.340976
0.34038
0.340123
0.339487
0.339166
0.338581
0.338084
0.337794
0.337285
0.337381
0.33769
0.337221
0.357251
0.350938
0.33106
0.327178
0.332579
0.337182
0.339324
0.340061
0.340309
0.340437
0.340553
0.340688
0.340836
0.341008
0.341196
0.34141
0.341641
0.3419
0.34218
0.342492
0.34283
0.343203
0.343605
0.344051
0.344527
0.345065
0.345619
0.346278
0.346921
0.347744
0.348507
0.349551
0.35046
0.351801
0.352865
0.354637
0.355927
0.358352
0.359972
0.363153
0.364655
0.368671
0.369629
0.373773
0.373102
0.376921
0.376069
0.38316
0.384305
0.390578
0.390979
0.384383
0.379635
0.343376
0.341749
0.355149
0.364179
0.359528
0.36085
0.357488
0.358671
0.355242
0.35584
0.353196
0.353477
0.351814
0.352129
0.350783
0.350677
0.349662
0.349616
0.348682
0.348237
0.347267
0.346595
0.345667
0.345026
0.344479
0.344069
0.343695
0.343373
0.343076
0.34272
0.342428
0.342004
0.341731
0.34122
0.34097
0.340375
0.34012
0.339483
0.339166
0.33858
0.338084
0.337795
0.337283
0.337381
0.337685
0.33721
0.357326
0.350918
0.330795
0.326891
0.332415
0.337114
0.339297
0.340047
0.340299
0.340429
0.340545
0.34068
0.340828
0.341
0.341188
0.341401
0.341632
0.341891
0.34217
0.342482
0.342819
0.343191
0.343592
0.344037
0.344512
0.345048
0.345601
0.346258
0.346899
0.347721
0.348481
0.349523
0.350428
0.351766
0.352826
0.354595
0.355881
0.358304
0.359922
0.363102
0.364605
0.368623
0.369582
0.373723
0.373033
0.376836
0.375965
0.383082
0.38422
0.390581
0.390953
0.384317
0.379792
0.343209
0.341701
0.355214
0.364133
0.359471
0.360835
0.357453
0.358619
0.35519
0.355786
0.353144
0.353425
0.351769
0.352082
0.350745
0.35064
0.349628
0.349585
0.348654
0.348211
0.347242
0.346569
0.345643
0.344998
0.344456
0.344047
0.343677
0.343357
0.343063
0.342709
0.342418
0.341995
0.341723
0.341213
0.340964
0.340369
0.340117
0.33948
0.339166
0.33858
0.338085
0.337797
0.337281
0.337382
0.33768
0.337199
0.357398
0.350894
0.330527
0.326602
0.332251
0.337046
0.33927
0.340034
0.340289
0.34042
0.340537
0.340672
0.34082
0.340992
0.341179
0.341393
0.341623
0.341881
0.34216
0.342471
0.342807
0.343179
0.343579
0.344023
0.344497
0.345032
0.345582
0.346238
0.346877
0.347697
0.348455
0.349494
0.350396
0.351731
0.352788
0.354553
0.355835
0.358255
0.359871
0.363049
0.364553
0.368572
0.369532
0.373669
0.37296
0.376744
0.375855
0.382996
0.384127
0.390573
0.390911
0.384218
0.379949
0.343057
0.341647
0.355275
0.364072
0.35941
0.360819
0.357416
0.358564
0.355136
0.355731
0.35309
0.353372
0.351721
0.352032
0.350705
0.350601
0.349592
0.349552
0.348625
0.348183
0.347217
0.346541
0.345617
0.34497
0.344431
0.344024
0.343658
0.343341
0.34305
0.342697
0.342407
0.341985
0.341716
0.341205
0.340959
0.340364
0.340115
0.339477
0.339167
0.33858
0.338087
0.3378
0.33728
0.337384
0.337677
0.337189
0.357466
0.350866
0.330256
0.326311
0.332086
0.336978
0.339243
0.34002
0.340279
0.340411
0.340528
0.340663
0.340811
0.340984
0.341171
0.341384
0.341614
0.341871
0.34215
0.34246
0.342795
0.343166
0.343565
0.344009
0.344481
0.345015
0.345564
0.346218
0.346855
0.347673
0.348429
0.349465
0.350364
0.351696
0.352749
0.354511
0.355788
0.358205
0.35982
0.362995
0.364501
0.368519
0.36948
0.373611
0.372883
0.376649
0.375741
0.382905
0.384026
0.390555
0.390855
0.384092
0.380118
0.342945
0.341599
0.355338
0.364001
0.359351
0.360806
0.35738
0.358508
0.355082
0.355674
0.353036
0.353316
0.351672
0.35198
0.350663
0.35056
0.349556
0.349518
0.348595
0.348155
0.347192
0.346513
0.345591
0.344941
0.344406
0.344
0.343638
0.343324
0.343036
0.342684
0.342397
0.341976
0.341708
0.341198
0.340954
0.340359
0.340113
0.339475
0.339168
0.338582
0.33809
0.337805
0.337281
0.337388
0.337674
0.337179
0.357531
0.350835
0.329982
0.326017
0.331919
0.336909
0.339215
0.340006
0.340268
0.340401
0.340519
0.340655
0.340803
0.340975
0.341162
0.341375
0.341604
0.341861
0.34214
0.342449
0.342784
0.343154
0.343552
0.343994
0.344465
0.344998
0.345546
0.346198
0.346833
0.347649
0.348402
0.349436
0.350332
0.35166
0.35271
0.354468
0.355741
0.358156
0.359768
0.36294
0.364448
0.368465
0.369428
0.373551
0.372803
0.376549
0.375624
0.382809
0.38392
0.390529
0.390789
0.383946
0.380312
0.342895
0.341573
0.355412
0.363927
0.359296
0.360797
0.357347
0.358453
0.355029
0.355617
0.352981
0.35326
0.351623
0.351927
0.350621
0.350518
0.349518
0.349482
0.348564
0.348126
0.347166
0.346484
0.345565
0.344912
0.344381
0.343976
0.343619
0.343307
0.343023
0.342672
0.342387
0.341966
0.3417
0.341192
0.34095
0.340356
0.340112
0.339474
0.339171
0.338585
0.338095
0.337811
0.337283
0.337394
0.337674
0.337169
0.357593
0.3508
0.329705
0.325721
0.331752
0.33684
0.339188
0.339991
0.340257
0.340392
0.34051
0.340646
0.340794
0.340967
0.341153
0.341366
0.341595
0.341852
0.342129
0.342438
0.342772
0.343141
0.343539
0.34398
0.34445
0.344982
0.345528
0.346178
0.346812
0.347625
0.348376
0.349408
0.3503
0.351625
0.352672
0.354427
0.355695
0.358107
0.359716
0.362886
0.364395
0.36841
0.369374
0.373489
0.372721
0.376447
0.375505
0.382711
0.38381
0.390497
0.390716
0.383789
0.380543
0.342927
0.34158
0.355503
0.363856
0.359249
0.360795
0.357317
0.358398
0.354977
0.355561
0.352927
0.353204
0.351573
0.351874
0.350579
0.350476
0.34948
0.349447
0.348533
0.348096
0.34714
0.346455
0.345539
0.344883
0.344355
0.343952
0.343599
0.343289
0.343009
0.34266
0.342376
0.341957
0.341693
0.341185
0.340946
0.340352
0.340112
0.339474
0.339175
0.33859
0.338101
0.33782
0.337287
0.337402
0.337675
0.33716
0.357651
0.350763
0.329425
0.325423
0.331583
0.336771
0.33916
0.339977
0.340246
0.340382
0.340501
0.340637
0.340785
0.340958
0.341144
0.341357
0.341585
0.341842
0.342119
0.342427
0.34276
0.343129
0.343525
0.343966
0.344435
0.344965
0.34551
0.346159
0.34679
0.347602
0.348351
0.34938
0.350269
0.351591
0.352635
0.354386
0.35565
0.358059
0.359664
0.362832
0.364343
0.368355
0.369321
0.373426
0.372638
0.376343
0.375386
0.382611
0.383698
0.390462
0.39064
0.383626
0.380819
0.343056
0.34163
0.355616
0.363792
0.359216
0.3608
0.357292
0.358347
0.354928
0.355506
0.352875
0.353148
0.351524
0.35182
0.350537
0.350434
0.349443
0.349411
0.348502
0.348067
0.347115
0.346427
0.345513
0.344854
0.34433
0.343928
0.343579
0.343272
0.342995
0.342648
0.342366
0.341949
0.341686
0.341179
0.340943
0.34035
0.340113
0.339475
0.33918
0.338596
0.338108
0.33783
0.337293
0.337411
0.337677
0.337152
0.357706
0.350722
0.329143
0.325122
0.331413
0.336701
0.339132
0.339962
0.340235
0.340373
0.340491
0.340628
0.340776
0.340949
0.341135
0.341347
0.341576
0.341832
0.342108
0.342416
0.342749
0.343117
0.343513
0.343952
0.34442
0.344949
0.345492
0.34614
0.346769
0.347579
0.348326
0.349352
0.350238
0.351558
0.352598
0.354346
0.355605
0.358012
0.359614
0.36278
0.364292
0.368301
0.369269
0.373363
0.372554
0.376238
0.375267
0.382511
0.383586
0.390423
0.390562
0.383467
0.381149
0.343296
0.341729
0.355757
0.363742
0.359197
0.360814
0.357273
0.358299
0.354882
0.355454
0.352825
0.353093
0.351476
0.351767
0.350495
0.350392
0.349406
0.349376
0.348472
0.348038
0.34709
0.346398
0.345487
0.344826
0.344305
0.343904
0.343559
0.343255
0.342982
0.342636
0.342357
0.34194
0.34168
0.341174
0.34094
0.340348
0.340115
0.339477
0.339186
0.338603
0.338117
0.337842
0.3373
0.337423
0.337682
0.337145
0.357758
0.350679
0.328857
0.324819
0.331242
0.336631
0.339104
0.339947
0.340224
0.340363
0.340482
0.340619
0.340767
0.34094
0.341126
0.341338
0.341566
0.341822
0.342098
0.342406
0.342738
0.343105
0.3435
0.343939
0.344405
0.344934
0.345475
0.346121
0.346749
0.347557
0.348302
0.349326
0.350209
0.351525
0.352562
0.354307
0.355562
0.357967
0.359565
0.362728
0.364242
0.368247
0.369218
0.3733
0.372471
0.376133
0.375149
0.382411
0.383475
0.390385
0.390486
0.383316
0.381538
0.343653
0.341883
0.355928
0.363709
0.359197
0.360839
0.357262
0.358255
0.354841
0.355404
0.352778
0.353041
0.351429
0.351716
0.350455
0.350351
0.34937
0.349341
0.348443
0.34801
0.347066
0.346371
0.345463
0.344798
0.34428
0.343881
0.34354
0.343238
0.342969
0.342624
0.342348
0.341933
0.341675
0.34117
0.340939
0.340347
0.340118
0.33948
0.339193
0.338612
0.338128
0.337856
0.33731
0.337437
0.337688
0.337138
0.357806
0.350633
0.32857
0.324514
0.331071
0.336561
0.339075
0.339932
0.340212
0.340353
0.340472
0.34061
0.340758
0.340931
0.341117
0.341329
0.341557
0.341813
0.342088
0.342395
0.342727
0.343094
0.343488
0.343926
0.344391
0.344918
0.345459
0.346104
0.34673
0.347535
0.348278
0.3493
0.35018
0.351494
0.352528
0.35427
0.35552
0.357923
0.359517
0.362678
0.364194
0.368195
0.369169
0.373237
0.372388
0.376029
0.375034
0.382314
0.383366
0.390347
0.390414
0.383179
0.38199
0.344129
0.342093
0.356132
0.363698
0.359216
0.360875
0.357258
0.358217
0.354804
0.355358
0.352734
0.35299
0.351384
0.351665
0.350416
0.350311
0.349334
0.349307
0.348414
0.347982
0.347043
0.346344
0.345439
0.344771
0.344257
0.343858
0.343521
0.343222
0.342956
0.342613
0.342339
0.341925
0.34167
0.341166
0.340938
0.340348
0.340121
0.339485
0.339202
0.338623
0.33814
0.337872
0.337321
0.337453
0.337696
0.337133
0.357852
0.350584
0.32828
0.324207
0.330898
0.33649
0.339047
0.339917
0.340201
0.340342
0.340463
0.340601
0.340749
0.340922
0.341108
0.34132
0.341548
0.341803
0.342078
0.342385
0.342716
0.343082
0.343476
0.343913
0.344377
0.344904
0.345443
0.346086
0.346711
0.347515
0.348256
0.349276
0.350153
0.351464
0.352495
0.354234
0.35548
0.357881
0.359471
0.362631
0.364149
0.368144
0.369122
0.373176
0.372308
0.375927
0.374921
0.382218
0.383261
0.390311
0.390348
0.383063
0.382506
0.344722
0.342358
0.356367
0.36371
0.359256
0.360922
0.357261
0.358185
0.354772
0.355316
0.352693
0.352942
0.351341
0.351617
0.350378
0.350273
0.349301
0.349275
0.348387
0.347956
0.347022
0.346319
0.345415
0.344745
0.344233
0.343836
0.343503
0.343206
0.342944
0.342603
0.342331
0.341919
0.341666
0.341163
0.340938
0.340349
0.340126
0.339491
0.339213
0.338635
0.338154
0.33789
0.337334
0.337471
0.337706
0.337128
0.357894
0.350534
0.327988
0.323897
0.330723
0.336419
0.339018
0.339902
0.340189
0.340332
0.340453
0.340592
0.34074
0.340914
0.341099
0.341311
0.341539
0.341794
0.342069
0.342375
0.342705
0.343071
0.343464
0.343901
0.344364
0.34489
0.345427
0.34607
0.346693
0.347495
0.348234
0.349252
0.350126
0.351436
0.352463
0.354199
0.355441
0.35784
0.359428
0.362585
0.364105
0.368095
0.369077
0.373117
0.372229
0.375826
0.374812
0.382126
0.38316
0.390278
0.390291
0.382972
0.383084
0.345426
0.342675
0.356634
0.363747
0.359316
0.36098
0.357273
0.358158
0.354745
0.355278
0.352656
0.352896
0.351301
0.351571
0.350343
0.350236
0.349269
0.349244
0.348362
0.347931
0.347001
0.346294
0.345393
0.34472
0.344211
0.343814
0.343485
0.343191
0.342933
0.342593
0.342324
0.341913
0.341662
0.341161
0.340939
0.340351
0.340132
0.339498
0.339224
0.338649
0.338169
0.337909
0.337348
0.337491
0.337718
0.337124
0.357933
0.350481
0.327694
0.323585
0.330548
0.336348
0.33899
0.339887
0.340177
0.340322
0.340444
0.340583
0.340731
0.340905
0.341091
0.341303
0.34153
0.341785
0.342059
0.342365
0.342695
0.343061
0.343453
0.343889
0.344352
0.344876
0.345413
0.346054
0.346675
0.347476
0.348213
0.34923
0.350101
0.351408
0.352433
0.354167
0.355405
0.357802
0.359386
0.362541
0.364065
0.368049
0.369035
0.373061
0.372152
0.375728
0.374707
0.382038
0.383063
0.39025
0.390243
0.382908
0.383723
0.346232
0.343039
0.356928
0.36381
0.359397
0.361048
0.357291
0.358136
0.354723
0.355244
0.352623
0.352854
0.351262
0.351527
0.350309
0.350201
0.349239
0.349214
0.348338
0.347907
0.346982
0.346271
0.345373
0.344696
0.34419
0.343794
0.343468
0.343177
0.342922
0.342585
0.342317
0.341908
0.34166
0.34116
0.340941
0.340354
0.340139
0.339506
0.339237
0.338664
0.338186
0.337931
0.337365
0.337513
0.337732
0.337122
0.357969
0.350426
0.327397
0.323271
0.330372
0.336276
0.338961
0.339872
0.340166
0.340312
0.340434
0.340574
0.340723
0.340896
0.341082
0.341294
0.341521
0.341776
0.34205
0.342356
0.342685
0.343051
0.343442
0.343878
0.344339
0.344864
0.345399
0.346039
0.346659
0.347458
0.348194
0.349208
0.350078
0.351382
0.352405
0.354136
0.35537
0.357765
0.359346
0.3625
0.364026
0.368005
0.368996
0.373006
0.372079
0.375634
0.374605
0.381954
0.382973
0.390226
0.390205
0.382876
0.384416
0.347127
0.343441
0.357248
0.363899
0.359497
0.361126
0.357317
0.358121
0.354705
0.355214
0.352593
0.352814
0.351227
0.351485
0.350278
0.350168
0.34921
0.349187
0.348315
0.347885
0.346965
0.34625
0.345353
0.344673
0.344169
0.343774
0.343452
0.343163
0.342912
0.342576
0.342312
0.341904
0.341658
0.34116
0.340944
0.340358
0.340148
0.339515
0.339251
0.338681
0.338205
0.337954
0.337383
0.337537
0.337747
0.33712
0.358002
0.350369
0.327099
0.322954
0.330194
0.336204
0.338932
0.339856
0.340154
0.340301
0.340424
0.340565
0.340714
0.340888
0.341073
0.341286
0.341513
0.341767
0.342041
0.342347
0.342676
0.343041
0.343431
0.343867
0.344328
0.344851
0.345385
0.346025
0.346643
0.347441
0.348175
0.349188
0.350055
0.351357
0.352378
0.354106
0.355337
0.357731
0.359309
0.362462
0.363991
0.367963
0.36896
0.372955
0.372008
0.375542
0.374508
0.381875
0.382888
0.390208
0.390179
0.382875
0.385159
0.348097
0.343874
0.357588
0.364011
0.359615
0.361212
0.357349
0.35811
0.354692
0.355187
0.352566
0.352777
0.351193
0.351446
0.350249
0.350137
0.349184
0.349161
0.348295
0.347865
0.346949
0.346229
0.345334
0.344652
0.34415
0.343755
0.343437
0.343151
0.342903
0.342569
0.342306
0.3419
0.341657
0.34116
0.340947
0.340363
0.340156
0.339526
0.339266
0.338699
0.338224
0.337979
0.337402
0.337563
0.337764
0.337119
0.358032
0.35031
0.326798
0.322636
0.330016
0.336132
0.338903
0.339841
0.340142
0.340291
0.340415
0.340555
0.340705
0.340879
0.341065
0.341277
0.341504
0.341759
0.342033
0.342338
0.342667
0.343031
0.343421
0.343856
0.344317
0.344839
0.345373
0.346011
0.346628
0.347425
0.348157
0.349169
0.350034
0.351334
0.352352
0.354079
0.355306
0.357698
0.359274
0.362425
0.363957
0.367924
0.368927
0.372906
0.371941
0.375453
0.374416
0.3818
0.38281
0.390196
0.390163
0.382908
0.385945
0.349128
0.344328
0.357943
0.364145
0.359748
0.361306
0.357387
0.358104
0.354683
0.355165
0.352543
0.352743
0.351162
0.351409
0.350222
0.350108
0.349159
0.349137
0.348276
0.347846
0.346935
0.34621
0.345317
0.344631
0.344132
0.343738
0.343422
0.343139
0.342894
0.342562
0.342302
0.341898
0.341656
0.341161
0.340951
0.340368
0.340166
0.339537
0.339282
0.338718
0.338245
0.338005
0.337423
0.33759
0.337782
0.337118
0.358059
0.350249
0.326496
0.322315
0.329836
0.33606
0.338874
0.339825
0.34013
0.340281
0.340405
0.340546
0.340696
0.34087
0.341057
0.341269
0.341496
0.34175
0.342024
0.342329
0.342658
0.343022
0.343412
0.343846
0.344306
0.344828
0.345361
0.345998
0.346614
0.347409
0.348141
0.349151
0.350013
0.351312
0.352328
0.354052
0.355276
0.357668
0.359242
0.362391
0.363927
0.367888
0.368897
0.372861
0.371877
0.375369
0.374328
0.38173
0.382737
0.39019
0.39016
0.382973
0.386766
0.350205
0.344794
0.358308
0.364299
0.359893
0.361404
0.357428
0.358102
0.354677
0.355145
0.352522
0.352712
0.351134
0.351375
0.350197
0.350082
0.349137
0.349115
0.348259
0.347829
0.346922
0.346193
0.345301
0.344612
0.344114
0.343721
0.343409
0.343128
0.342887
0.342556
0.342299
0.341895
0.341657
0.341163
0.340956
0.340375
0.340177
0.339549
0.339299
0.338738
0.338267
0.338032
0.337445
0.337618
0.337801
0.337119
0.358083
0.350187
0.326192
0.321992
0.329655
0.335987
0.338845
0.33981
0.340118
0.34027
0.340395
0.340537
0.340687
0.340862
0.341048
0.341261
0.341488
0.341742
0.342016
0.342321
0.342649
0.343013
0.343402
0.343837
0.344296
0.344817
0.345349
0.345985
0.346601
0.347395
0.348125
0.349133
0.349994
0.351291
0.352305
0.354027
0.355248
0.357639
0.359211
0.36236
0.363899
0.367854
0.36887
0.372818
0.371817
0.375288
0.374244
0.381665
0.382671
0.39019
0.390167
0.383071
0.387616
0.351314
0.345262
0.358677
0.364468
0.360049
0.361507
0.357474
0.358104
0.354675
0.355129
0.352505
0.352683
0.351108
0.351343
0.350174
0.350057
0.349116
0.349095
0.348244
0.347814
0.346911
0.346177
0.345287
0.344595
0.344098
0.343706
0.343396
0.343118
0.34288
0.342551
0.342296
0.341894
0.341658
0.341165
0.340962
0.340382
0.340189
0.339562
0.339317
0.338759
0.33829
0.338061
0.337468
0.337648
0.337822
0.33712
0.358104
0.350123
0.325887
0.321667
0.329473
0.335914
0.338816
0.339794
0.340106
0.34026
0.340386
0.340528
0.340679
0.340854
0.34104
0.341253
0.34148
0.341734
0.342008
0.342313
0.342641
0.343004
0.343393
0.343827
0.344286
0.344807
0.345338
0.345974
0.346588
0.347381
0.34811
0.349117
0.349976
0.351271
0.352283
0.354004
0.355222
0.357611
0.359182
0.362331
0.363873
0.367823
0.368846
0.372779
0.37176
0.37521
0.374165
0.381604
0.382611
0.390196
0.390184
0.383199
0.388486
0.352445
0.345726
0.359044
0.36465
0.360211
0.361612
0.357521
0.358108
0.354675
0.355116
0.352489
0.352656
0.351083
0.351313
0.350154
0.350034
0.349098
0.349077
0.34823
0.3478
0.346901
0.346163
0.345273
0.344578
0.344083
0.343691
0.343384
0.343109
0.342873
0.342547
0.342293
0.341893
0.341659
0.341168
0.340968
0.34039
0.340201
0.339576
0.339336
0.33878
0.338314
0.33809
0.337493
0.337678
0.337843
0.337122
0.358123
0.350056
0.325579
0.321341
0.32929
0.33584
0.338787
0.339779
0.340094
0.34025
0.340376
0.340519
0.34067
0.340845
0.341032
0.341245
0.341472
0.341726
0.342
0.342304
0.342632
0.342996
0.343385
0.343818
0.344276
0.344797
0.345327
0.345962
0.346575
0.347367
0.348095
0.349101
0.349959
0.351252
0.352263
0.353982
0.355197
0.357586
0.359156
0.362304
0.363849
0.367795
0.368825
0.372743
0.371706
0.375136
0.374089
0.381548
0.382556
0.390208
0.390212
0.383355
0.389371
0.353586
0.346177
0.359405
0.364841
0.360378
0.361717
0.35757
0.358115
0.354677
0.355104
0.352477
0.352632
0.351061
0.351286
0.350135
0.350013
0.349081
0.34906
0.348218
0.347787
0.346892
0.34615
0.345261
0.344563
0.344069
0.343678
0.343373
0.3431
0.342868
0.342543
0.342292
0.341893
0.341661
0.341172
0.340975
0.340398
0.340213
0.33959
0.339355
0.338803
0.338339
0.33812
0.337518
0.33771
0.337865
0.337124
0.358138
0.349989
0.32527
0.321012
0.329106
0.335766
0.338757
0.339763
0.340082
0.340239
0.340366
0.34051
0.340661
0.340837
0.341024
0.341237
0.341464
0.341718
0.341992
0.342297
0.342624
0.342988
0.343376
0.343809
0.344267
0.344787
0.345317
0.345951
0.346564
0.347355
0.348081
0.349086
0.349942
0.351234
0.352243
0.35396
0.355174
0.357561
0.359131
0.362278
0.363828
0.367769
0.368806
0.37271
0.371655
0.375066
0.374018
0.381497
0.382507
0.390225
0.390248
0.383538
0.390263
0.35473
0.346611
0.359756
0.365038
0.360546
0.361822
0.35762
0.358123
0.354681
0.355095
0.352465
0.35261
0.351041
0.351261
0.350118
0.349994
0.349066
0.349046
0.348208
0.347777
0.346885
0.346138
0.34525
0.344549
0.344055
0.343665
0.343363
0.343092
0.342863
0.34254
0.342291
0.341894
0.341664
0.341176
0.340983
0.340407
0.340227
0.339605
0.339375
0.338826
0.338365
0.338151
0.337543
0.337742
0.337887
0.337126
0.35815
0.349919
0.32496
0.320681
0.32892
0.335692
0.338728
0.339748
0.340071
0.340229
0.340357
0.340501
0.340653
0.340829
0.341016
0.341229
0.341456
0.341711
0.341984
0.342289
0.342616
0.34298
0.343368
0.343801
0.344258
0.344778
0.345307
0.345941
0.346552
0.347342
0.348068
0.349071
0.349926
0.351216
0.352225
0.35394
0.355152
0.357538
0.359108
0.362255
0.363808
0.367745
0.36879
0.37268
0.371608
0.374999
0.373951
0.381449
0.382463
0.390248
0.390293
0.383744
0.391157
0.355869
0.347023
0.360091
0.365237
0.360712
0.361925
0.35767
0.358132
0.354685
0.355088
0.352456
0.352589
0.351022
0.351238
0.350102
0.349977
0.349052
0.349033
0.348199
0.347767
0.346879
0.346127
0.345239
0.344536
0.344043
0.343654
0.343354
0.343085
0.342859
0.342538
0.34229
0.341895
0.341667
0.341181
0.340991
0.340416
0.34024
0.33962
0.339396
0.338849
0.338391
0.338183
0.337569
0.337775
0.33791
0.337129
0.35816
0.349848
0.324647
0.320348
0.328734
0.335618
0.338699
0.339732
0.340059
0.340219
0.340347
0.340493
0.340644
0.340821
0.341008
0.341221
0.341448
0.341703
0.341976
0.342281
0.342608
0.342972
0.34336
0.343793
0.34425
0.344769
0.345298
0.34593
0.346541
0.34733
0.348055
0.349057
0.349911
0.3512
0.352207
0.353921
0.35513
0.357516
0.359086
0.362233
0.36379
0.367723
0.368777
0.372652
0.371563
0.374936
0.373886
0.381406
0.382424
0.390276
0.390346
0.383971
0.392049
0.357
0.34741
0.360409
0.365435
0.360875
0.362025
0.357718
0.358142
0.354691
0.355081
0.352448
0.35257
0.351005
0.351216
0.350089
0.349962
0.34904
0.349021
0.348191
0.347759
0.346874
0.346118
0.34523
0.344524
0.344031
0.343643
0.343345
0.343079
0.342855
0.342536
0.34229
0.341896
0.341671
0.341186
0.340999
0.340426
0.340254
0.339636
0.339417
0.338873
0.338417
0.338215
0.337596
0.337809
0.337934
0.337132
0.358167
0.349775
0.324334
0.320013
0.328546
0.335543
0.338669
0.339716
0.340047
0.340208
0.340337
0.340484
0.340636
0.340813
0.341
0.341214
0.341441
0.341695
0.341969
0.342273
0.342601
0.342964
0.343352
0.343784
0.344241
0.34476
0.345288
0.34592
0.346531
0.347319
0.348043
0.349044
0.349897
0.351184
0.35219
0.353902
0.35511
0.357494
0.359066
0.362213
0.363774
0.367704
0.368765
0.372628
0.371522
0.374875
0.373825
0.381365
0.382389
0.390308
0.390405
0.384216
0.392934
0.358118
0.347771
0.360706
0.365629
0.361033
0.36212
0.357765
0.358152
0.354697
0.355076
0.352441
0.352552
0.350988
0.351197
0.350076
0.349947
0.34903
0.349012
0.348185
0.347752
0.34687
0.346109
0.345222
0.344513
0.34402
0.343633
0.343337
0.343074
0.342852
0.342535
0.342291
0.341898
0.341675
0.341192
0.341007
0.340436
0.340269
0.339652
0.339438
0.338897
0.338444
0.338247
0.337623
0.337842
0.337957
0.337134
0.35817
0.3497
0.324019
0.319677
0.328357
0.335468
0.338639
0.339701
0.340035
0.340198
0.340328
0.340475
0.340627
0.340805
0.340992
0.341206
0.341433
0.341688
0.341961
0.342266
0.342593
0.342956
0.343344
0.343776
0.344233
0.344752
0.345279
0.345911
0.346521
0.347307
0.348031
0.349031
0.349882
0.351168
0.352174
0.353884
0.35509
0.357474
0.359046
0.362194
0.363758
0.367686
0.368756
0.372606
0.371482
0.374817
0.373767
0.381328
0.382358
0.390344
0.39047
0.384476
0.393809
0.359221
0.348107
0.360981
0.365817
0.361183
0.36221
0.357809
0.358162
0.354702
0.355072
0.352434
0.352535
0.350973
0.351179
0.350065
0.349935
0.349021
0.349003
0.348179
0.347746
0.346867
0.346102
0.345214
0.344502
0.34401
0.343623
0.343329
0.343069
0.342849
0.342534
0.342292
0.3419
0.341679
0.341197
0.341016
0.340446
0.340283
0.339668
0.33946
0.338921
0.338471
0.33828
0.33765
0.337876
0.33798
0.337137
0.358171
0.349624
0.323702
0.319338
0.328167
0.335392
0.33861
0.339685
0.340023
0.340188
0.340318
0.340466
0.340619
0.340796
0.340984
0.341198
0.341426
0.34168
0.341954
0.342258
0.342585
0.342949
0.343336
0.343768
0.344225
0.344743
0.34527
0.345901
0.34651
0.347296
0.348019
0.349018
0.349869
0.351153
0.352158
0.353866
0.355071
0.357454
0.359028
0.362176
0.363744
0.367669
0.368748
0.372586
0.371446
0.374762
0.373711
0.381295
0.38233
0.390385
0.39054
0.384748
0.394671
0.360309
0.348417
0.361233
0.365998
0.361325
0.362295
0.357851
0.358171
0.354708
0.355068
0.352429
0.35252
0.350959
0.351162
0.350055
0.349923
0.349013
0.348996
0.348175
0.347741
0.346865
0.346096
0.345207
0.344493
0.344001
0.343615
0.343322
0.343064
0.342847
0.342534
0.342293
0.341903
0.341684
0.341203
0.341025
0.340456
0.340298
0.339684
0.339481
0.338946
0.338498
0.338313
0.337677
0.33791
0.338004
0.33714
0.358169
0.349546
0.323384
0.318997
0.327977
0.335316
0.33858
0.339669
0.340011
0.340177
0.340309
0.340457
0.34061
0.340788
0.340976
0.34119
0.341418
0.341673
0.341946
0.342251
0.342578
0.342941
0.343328
0.34376
0.344216
0.344735
0.345261
0.345892
0.3465
0.347285
0.348008
0.349005
0.349855
0.351137
0.352142
0.353849
0.355053
0.357434
0.359011
0.362159
0.363731
0.367654
0.368742
0.372569
0.371411
0.374709
0.373657
0.381263
0.382306
0.390428
0.390614
0.385032
0.395519
0.361379
0.348703
0.361462
0.36617
0.361458
0.362374
0.35789
0.358179
0.354713
0.355065
0.352424
0.352505
0.350946
0.351147
0.350046
0.349913
0.349006
0.34899
0.348172
0.347737
0.346864
0.34609
0.345201
0.344484
0.343992
0.343607
0.343316
0.34306
0.342845
0.342534
0.342295
0.341906
0.341688
0.34121
0.341034
0.340467
0.340313
0.3397
0.339503
0.33897
0.338526
0.338345
0.337704
0.337945
0.338027
0.337143
0.358164
0.349466
0.323064
0.318655
0.327784
0.33524