/*--------------------------------*- C++ -*----------------------------------*\
| =========                 |                                                 |
| \\      /  F ield         | OpenFOAM: The Open Source CFD Toolbox           |
|  \\    /   O peration     | Version:  2412                                  |
|   \\  /    A nd           | Website:  www.openfoam.com                      |
|    \\/     M anipulation  |                                                 |
\*---------------------------------------------------------------------------*/
FoamFile
{
    version     2.0;
    format      ascii;
    arch        "LSB;label=32;scalar=64";
    class       volScalarField;
    location    "0.1";
    object      p;
}
// * * * * * * * * * * * * * * * * * * * * * * * * * * * * * * * * * * * * * //

dimensions      [0 2 -2 0 0 0 0];

internalField   nonuniform List<scalar> 
12960
(
125619
125615
125573
125538
125465
125385
125285
125163
125027
124863
124685
124474
124248
123987
123705
123386
123041
122658
122240
121781
121285
120728
120173
119426
118975
117712
117790
115514
116406
113225
114224
111058
111586
107860
109578
103032
107678
97297.6
105103
90629.6
101844
82386
97950
71171.2
93356
54588.8
86951
29943.4
77409.5
-5124.37
63873.9
-53616.9
46745.8
-108322
31575.7
-81351.8
28818.9
-48253.9
33683.5
-21427.7
38687.3
-144.077
43289.5
16883.5
47173
29882.8
51069.3
39380.7
54521.9
46599
57171.8
52662.6
59007.9
57456.9
61319.4
60571.4
63934.1
63243.3
65891.7
65909.6
67438.8
68127.3
68975.7
69903.4
70457.4
71441.4
71875.2
72880.8
73210.7
74262.6
74542.4
75598.4
75846.3
76914.9
77157.1
78137.7
78443.5
79306.6
79591.9
125623
125619
125576
125542
125469
125390
125289
125168
125031
124867
124689
124478
124252
123991
123709
123390
123045
122662
122244
121785
121288
120731
120177
119430
118978
117716
117793
115519
116407
113231
114224
111063
111588
107863
109580
103037
107677
97305.2
105100
90637.6
101845
82395.5
97956
71185.3
93369.1
54607
86965.6
29958.6
77417.8
-5118.02
63873.2
-53659
46717.5
-108466
31532.2
-81391.5
28791.5
-48252.3
33673.8
-21422.6
38685.2
-140.459
43291.4
16888.3
47175.2
29890.2
51069.9
39389.8
54520.6
46607.3
57170.8
52666.8
59008.9
57458.2
61318.8
60573.9
63931.7
63246.1
65890.3
65910.9
67438.4
68127.3
68975.2
69902.4
70456.4
71439.8
71873.5
72878.8
73208.8
74260.5
74540.5
75596.5
75844.9
76913.5
77156.7
78136.3
78444.7
79304.4
79594.9
125628
125623
125581
125546
125474
125394
125293
125172
125035
124871
124693
124482
124256
123995
123713
123394
123049
122666
122247
121788
121292
120735
120180
119433
118981
117720
117795
115524
116408
113236
114225
111067
111591
107865
109583
103041
107676
97312.9
105098
90645.6
101846
82405
97962.1
71199.5
93382.2
54625.3
86980
29974
77426.3
-5111.45
63872.8
-53701.2
46689.1
-108612
31488.4
-81431.7
28764.2
-48250.8
33664
-21417.4
38683.1
-136.725
43293.3
16893.3
47177.4
29897.7
51070.5
39398.9
54519.4
46615.7
57169.9
52671
59009.9
57459.6
61318.1
60576.5
63929.3
63248.9
65889
65912.3
67438.1
68127.4
68974.7
69901.5
70455.4
71438.2
71872
72876.9
73207
74258.4
74538.7
75594.8
75843.5
76912.2
77156.3
78135.2
78446
79302.4
79597.9
125633
125627
125585
125550
125478
125398
125298
125175
125039
124875
124697
124486
124260
123998
123717
123398
123053
122669
122251
121792
121296
120739
120184
119437
118984
117723
117797
115529
116409
113242
114225
111072
111593
107868
109585
103046
107675
97320.7
105096
90653.8
101848
82414.6
97968.1
71213.7
93395.2
54643.6
86994.5
29989.6
77434.7
-5104.65
63872.6
-53743.5
46660.6
-108760
31444.4
-81472.4
28736.8
-48249.3
33654.3
-21412.1
38681
-132.889
43295.1
16898.3
47179.6
29905.3
51071.1
39408.1
54518.2
46624
57168.9
52675.2
59011
57460.9
61317.6
60579
63927
63251.8
65887.6
65913.6
67437.8
68127.5
68974.3
69900.6
70454.4
71436.7
71870.4
72875
73205.2
74256.4
74536.9
75593.1
75842.1
76911
77156
78134.1
78447.3
79300.5
79600.9
125638
125632
125590
125555
125482
125402
125302
125179
125043
124879
124701
124490
124264
124002
123721
123402
123057
122673
122255
121796
121300
120742
120188
119440
118988
117727
117799
115533
116409
113248
114226
111076
111596
107870
109588
103051
107674
97328.5
105094
90662
101849
82424.3
97974.2
71228.1
93408.3
54662.2
87009
30005.3
77443.3
-5097.67
63872.7
-53785.8
46632.2
-108910
31399.8
-81513.4
28709.2
-48248
33644.5
-21406.7
38678.8
-129.019
43296.9
16903.4
47181.7
29912.8
51071.7
39417.3
54516.9
46632.4
57167.9
52679.5
59012
57462.4
61317
60581.6
63924.7
63254.6
65886.3
65915
67437.6
68127.7
68973.9
69899.7
70453.5
71435.2
71868.9
72873.1
73203.5
74254.4
74535.1
75591.4
75840.8
76909.8
77155.7
78133.1
78448.6
79298.6
79604
125642
125637
125594
125559
125486
125406
125306
125183
125047
124883
124705
124494
124268
124006
123725
123406
123061
122677
122259
121800
121303
120746
120191
119444
118991
117731
117802
115538
116410
113254
114226
111081
111598
107873
109590
103055
107673
97336.3
105092
90670.2
101850
82434.1
97980.3
71242.5
93421.6
54680.9
87023.7
30021.3
77452.1
-5090.52
63872.9
-53828.2
46603.8
-109062
31354.7
-81554.9
28681.4
-48246.6
33634.6
-21401.4
38676.7
-125.125
43298.8
16908.5
47184
29920.5
51072.2
39426.6
54515.7
46640.9
57166.9
52683.8
59013
57463.8
61316.4
60584.1
63922.4
63257.5
65885
65916.5
67437.3
68127.8
68973.5
69898.8
70452.5
71433.6
71867.4
72871.2
73201.7
74252.4
74533.3
75589.8
75839.4
76908.6
77155.3
78132.1
78449.9
79296.7
79607
125647
125641
125599
125563
125490
125410
125310
125187
125051
124887
124709
124498
124272
124010
123729
123410
123065
122681
122263
121803
121307
120750
120195
119448
118994
117735
117804
115543
116411
113260
114227
111085
111601
107876
109593
103060
107673
97344.2
105090
90678.5
101851
82444
97986.5
71257
93434.9
54699.8
87038.4
30037.4
77460.9
-5083.21
63873.3
-53870.5
46575.3
-109214
31309.2
-81596.7
28653.3
-48245.3
33624.6
-21396
38674.5
-121.204
43300.6
16913.7
47186.2
29928.2
51072.8
39435.9
54514.5
46649.4
57165.9
52688.2
59014
57465.3
61315.7
60586.7
63920
63260.4
65883.7
65917.9
67437
68128
68973.1
69897.9
70451.5
71432.1
71865.8
72869.3
73199.9
74250.4
74531.5
75588.1
75838
76907.5
77155
78131.1
78451.2
79294.9
79610.1
125652
125646
125603
125568
125495
125414
125314
125192
125056
124891
124713
124502
124276
124014
123733
123414
123069
122685
122267
121807
121311
120754
120198
119451
118998
117739
117807
115548
116412
113266
114227
111090
111604
107878
109595
103065
107672
97352.1
105088
90686.9
101852
82453.9
97992.7
71271.7
93448.4
54718.9
87053.4
30053.7
77469.9
-5075.73
63873.9
-53913
46546.8
-109369
31263.2
-81638.9
28625
-48244
33614.6
-21390.5
38672.3
-117.25
43302.5
16918.9
47188.4
29935.9
51073.4
39445.4
54513.2
46658
57164.9
52692.6
59015
57466.7
61315.1
60589.4
63917.7
63263.4
65882.4
65919.4
67436.8
68128.1
68972.8
69897
70450.6
71430.5
71864.3
72867.3
73198.1
74248.4
74529.7
75586.4
75836.6
76906.3
77154.6
78130.1
78452.5
79293.1
79613.2
125657
125651
125608
125572
125499
125418
125318
125196
125060
124895
124717
124506
124280
124018
123737
123418
123073
122689
122271
121811
121315
120757
120202
119455
119001
117743
117809
115553
116413
113272
114228
111095
111606
107881
109598
103070
107671
97360.1
105086
90695.3
101853
82463.8
97998.9
71286.4
93462
54738.2
87068.4
30070.1
77479
-5068.09
63874.7
-53955.6
46518
-109525
31216.9
-81681.3
28596.5
-48242.7
33604.5
-21385
38670.1
-113.262
43304.4
16924.1
47190.7
29943.8
51074
39454.9
54511.9
46666.7
57163.9
52697
59016
57468.2
61314.5
60592
63915.3
63266.4
65881.1
65920.9
67436.5
68128.3
68972.4
69896.1
70449.6
71429
71862.7
72865.4
73196.3
74246.3
74527.8
75584.7
75835.1
76905.2
77154.1
78129.2
78453.7
79291.2
79616.3
125662
125656
125612
125576
125503
125423
125322
125200
125064
124899
124721
124510
124284
124022
123741
123422
123077
122693
122275
121815
121319
120761
120206
119459
119004
117747
117811
115558
116413
113278
114228
111099
111609
107884
109601
103075
107670
97368.1
105084
90703.7
101855
82473.8
98005.2
71301.2
93475.7
54757.6
87083.5
30086.7
77488.1
-5060.3
63875.6
-53998.2
46489
-109682
31170.2
-81723.9
28567.8
-48241.3
33594.3
-21379.4
38667.8
-109.234
43306.3
16929.4
47193
29951.6
51074.7
39464.5
54510.7
46675.4
57162.9
52701.5
59017.1
57469.7
61313.9
60594.7
63912.9
63269.4
65879.8
65922.4
67436.3
68128.5
68972
69895.2
70448.6
71427.4
71861.2
72863.4
73194.4
74244.3
74525.9
75583
75833.7
76904
77153.7
78128.3
78455
79289.4
79619.4
125667
125661
125617
125581
125508
125427
125327
125204
125068
124903
124725
124514
124288
124027
123745
123426
123081
122697
122279
121819
121323
120765
120209
119462
119008
117751
117814
115563
116414
113284
114229
111104
111612
107886
109603
103080
107669
97376.2
105082
90712.1
101856
82483.9
98011.5
71316.1
93489.5
54777.2
87098.8
30103.4
77497.4
-5052.37
63876.6
-54041
46459.7
-109840
31123.2
-81766.9
28538.9
-48239.8
33584.1
-21373.7
38665.6
-105.167
43308.2
16934.8
47195.3
29959.6
51075.3
39474.1
54509.4
46684.2
57161.8
52706
59018.1
57471.2
61313.3
60597.4
63910.5
63272.4
65878.4
65923.9
67436
68128.7
68971.6
69894.4
70447.7
71425.8
71859.6
72861.5
73192.6
74242.2
74524
75581.3
75832.2
76902.9
77153.2
78127.4
78456.2
79287.6
79622.5
125673
125666
125622
125585
125512
125431
125331
125208
125072
124907
124729
124518
124293
124031
123750
123430
123085
122701
122283
121823
121327
120769
120213
119466
119011
117755
117816
115568
116415
113290
114229
111109
111614
107889
109606
103085
107668
97384.3
105080
90720.6
101857
82494
98017.9
71331.1
93503.4
54796.9
87114.2
30120.3
77506.7
-5044.3
63877.8
-54084
46430
-110000
31075.9
-81810
28509.9
-48238.3
33573.9
-21368
38663.3
-101.058
43310.1
16940.2
47197.6
29967.5
51076
39483.9
54508.1
46693.1
57160.8
52710.5
59019.1
57472.7
61312.7
60600.1
63908.1
63275.5
65877.1
65925.4
67435.8
68128.9
68971.2
69893.5
70446.7
71424.3
71858
72859.5
73190.7
74240.1
74522.1
75579.6
75830.6
76901.7
77152.7
78126.5
78457.4
79285.9
79625.7
125678
125671
125627
125590
125517
125435
125335
125212
125076
124911
124734
124522
124297
124035
123754
123434
123089
122705
122287
121827
121331
120773
120217
119470
119014
117759
117819
115573
116416
113296
114230
111113
111617
107892
109608
103090
107667
97392.5
105078
90729.2
101858
82504.2
98024.3
71346.1
93517.5
54816.9
87129.7
30137.3
77516.2
-5036.1
63879
-54127.2
46400
-110162
31028.4
-81853.3
28480.8
-48236.7
33563.6
-21362.2
38661.1
-96.9046
43312
16945.7
47200
29975.6
51076.6
39493.7
54506.9
46702
57159.8
52715.1
59020.2
57474.3
61312
60602.8
63905.7
63278.6
65875.8
65927
67435.5
68129.1
68970.8
69892.6
70445.7
71422.7
71856.4
72857.5
73188.8
74238.1
74520.2
75577.9
75829.1
76900.6
77152.2
78125.6
78458.6
79284.1
79628.8
125683
125676
125631
125595
125521
125440
125340
125216
125081
124915
124738
124527
124301
124039
123758
123439
123094
122709
122291
121831
121335
120777
120221
119474
119018
117763
117821
115578
116417
113302
114230
111118
111620
107895
109611
103095
107667
97400.7
105076
90737.8
101859
82514.4
98030.7
71361.3
93531.6
54836.9
87145.3
30154.5
77525.7
-5027.78
63880.4
-54170.6
46369.5
-110325
30980.6
-81896.7
28451.5
-48235
33553.2
-21356.3
38658.8
-92.7056
43314
16951.2
47202.4
29983.7
51077.3
39503.6
54505.6
46711
57158.7
52719.8
59021.2
57475.8
61311.4
60605.5
63903.3
63281.7
65874.4
65928.6
67435.3
68129.3
68970.5
69891.7
70444.7
71421.1
71854.8
72855.5
73186.9
74236
74518.2
75576.2
75827.5
76899.5
77151.6
78124.8
78459.8
79282.4
79631.9
125688
125681
125636
125599
125526
125444
125344
125221
125085
124920
124742
124531
124305
124043
123762
123443
123098
122714
122295
121835
121339
120781
120225
119478
119021
117767
117824
115584
116418
113309
114231
111123
111623
107898
109614
103100
107666
97408.9
105073
90746.4
101860
82524.6
98037.2
71376.5
93545.8
54857.2
87161
30171.8
77535.3
-5019.34
63881.8
-54214.3
46338.5
-110489
30932.5
-81940.4
28422.1
-48233.2
33542.9
-21350.4
38656.5
-88.4596
43316
16956.7
47204.8
29991.9
51078
39513.5
54504.3
46720.1
57157.7
52724.4
59022.3
57477.4
61310.8
60608.3
63900.8
63284.9
65873.1
65930.2
67435.1
68129.5
68970.1
69890.8
70443.7
71419.5
71853.2
72853.5
73185
74233.8
74516.2
75574.4
75825.9
76898.4
77151
78124
78461
79280.7
79635.1
125693
125686
125641
125604
125530
125448
125349
125225
125089
124924
124746
124535
124310
124048
123767
123447
123102
122718
122299
121839
121343
120785
120229
119482
119025
117771
117826
115589
116418
113315
114231
111128
111625
107900
109616
103105
107665
97417.2
105071
90755
101861
82534.9
98043.7
71391.8
93560.2
54877.6
87176.8
30189.2
77544.9
-5010.79
63883.2
-54258.2
46307.1
-110654
30884.3
-81984.1
28392.6
-48231.2
33532.5
-21344.3
38654.2
-84.1651
43318
16962.4
47207.2
30000.1
51078.7
39523.6
54503
46729.2
57156.6
52729.1
59023.4
57479
61310.2
60611
63898.4
63288
65871.7
65931.8
67434.8
68129.8
68969.7
69889.9
70442.7
71417.9
71851.5
72851.5
73183.1
74231.7
74514.2
75572.7
75824.2
76897.3
77150.4
78123.2
78462.1
79279
79638.3
125699
125691
125646
125608
125535
125453
125353
125229
125094
124928
124751
124539
124314
124052
123771
123451
123106
122722
122304
121843
121347
120789
120232
119485
119028
117775
117829
115594
116419
113321
114232
111132
111628
107903
109619
103110
107664
97425.5
105069
90763.7
101863
82545.3
98050.2
71407.2
93574.6
54898.1
87192.7
30206.8
77554.6
-5002.14
63884.7
-54302.5
46275.2
-110821
30835.7
-82028
28363.1
-48229.1
33522.1
-21338.2
38652
-79.8217
43320
16968
47209.7
30008.4
51079.5
39533.7
54501.7
46738.5
57155.6
52733.9
59024.4
57480.6
61309.5
60613.8
63895.9
63291.3
65870.4
65933.5
67434.6
68130
68969.4
69889
70441.7
71416.2
71849.9
72849.4
73181.1
74229.6
74512.1
75571
75822.5
76896.2
77149.8
78122.4
78463.2
79277.3
79641.4
125704
125696
125651
125613
125539
125457
125358
125234
125098
124932
124755
124544
124318
124056
123775
123456
123111
122726
122308
121848
121351
120793
120236
119489
119032
117779
117831
115599
116420
113328
114233
111137
111631
107906
109622
103116
107663
97433.9
105067
90772.4
101864
82555.7
98056.8
71422.7
93589.2
54918.9
87208.7
30224.5
77564.4
-4993.38
63886.3
-54347.1
46242.7
-110989
30787
-82072.1
28333.4
-48226.8
33511.6
-21332
38649.7
-75.4289
43322
16973.8
47212.2
30016.7
51080.2
39543.9
54500.4
46747.7
57154.5
52738.7
59025.5
57482.2
61308.9
60616.7
63893.4
63294.5
65869
65935.2
67434.4
68130.3
68969
69888.1
70440.7
71414.6
71848.2
72847.4
73179.1
74227.4
74510.1
75569.2
75820.8
76895.1
77149.1
78121.7
78464.3
79275.7
79644.6
125709
125701
125656
125618
125544
125462
125362
125238
125103
124937
124760
124548
124323
124060
123780
123460
123115
122731
122312
121852
121355
120797
120240
119493
119035
117784
117834
115605
116421
113334
114233
111142
111634
107909
109624
103121
107662
97442.3
105065
90781.2
101865
82566.2
98063.3
71438.2
93603.8
54939.7
87224.8
30242.3
77574.2
-4984.53
63887.9
-54392
46209.8
-111158
30737.9
-82116.3
28303.7
-48224.5
33501.2
-21325.7
38647.4
-70.987
43324.1
16979.5
47214.7
30025.2
51081
39554.2
54499.1
46757.1
57153.5
52743.5
59026.6
57483.8
61308.2
60619.5
63891
63297.8
65867.6
65936.9
67434.2
68130.6
68968.6
69887.2
70439.7
71413
71846.6
72845.3
73177.2
74225.2
74508
75567.5
75819.1
76894
77148.4
78121
78465.4
79274
79647.8
125715
125706
125661
125623
125549
125466
125367
125242
125107
124941
124764
124552
124327
124065
123784
123464
123119
122735
122316
121856
121359
120801
120244
119497
119039
117788
117836
115610
116422
113341
114234
111147
111637
107912
109627
103126
107661
97450.7
105062
90790
101866
82576.7
98070
71453.9
93618.6
54960.8
87241
30260.3
77584.1
-4975.59
63889.5
-54437.2
46176.5
-111328
30688.6
-82160.6
28273.9
-48221.9
33490.6
-21319.4
38645.1
-66.496
43326.1
16985.4
47217.3
30033.6
51081.8
39564.5
54497.8
46766.5
57152.4
52748.4
59027.6
57485.4
61307.6
60622.3
63888.5
63301.1
65866.3
65938.6
67434
68130.8
68968.3
69886.3
70438.7
71411.3
71844.9
72843.2
73175.2
74223.1
74505.9
75565.7
75817.3
76892.9
77147.6
78120.3
78466.4
79272.4
79651
125720
125711
125666
125627
125554
125471
125371
125247
125112
124945
124768
124557
124331
124069
123788
123469
123124
122739
122321
121860
121363
120805
120248
119501
119043
117792
117839
115616
116423
113347
114234
111152
111640
107915
109630
103132
107660
97459.2
105060
90798.8
101867
82587.2
98076.6
71469.6
93633.4
54982
87257.4
30278.4
77594.1
-4966.55
63891.2
-54482.8
46142.7
-111500
30639
-82205.2
28244
-48219.3
33480.1
-21312.9
38642.8
-61.9569
43328.2
16991.3
47219.9
30042.2
51082.6
39575
54496.5
46775.9
57151.3
52753.3
59028.7
57487.1
61307
60625.2
63886
63304.4
65864.9
65940.3
67433.8
68131.1
68967.9
69885.3
70437.7
71409.7
71843.2
72841.1
73173.1
74220.9
74503.7
75563.9
75815.5
76891.9
77146.9
78119.6
78467.5
79270.8
79654.2
125726
125716
125671
125632
125558
125475
125376
125251
125116
124950
124773
124561
124336
124074
123793
123473
123128
122744
122325
121865
121368
120809
120252
119505
119046
117797
117841
115621
116424
113354
114235
111157
111643
107918
109632
103137
107659
97467.8
105058
90807.7
101868
82597.8
98083.3
71485.4
93648.3
55003.3
87273.8
30296.6
77604.1
-4957.42
63892.9
-54528.8
46108.5
-111673
30589
-82249.9
28214
-48216.5
33469.5
-21306.4
38640.5
-57.3701
43330.4
16997.2
47222.5
30050.8
51083.4
39585.5
54495.2
46785.5
57150.2
52758.3
59029.8
57488.7
61306.3
60628.1
63883.4
63307.7
65863.5
65942.1
67433.6
68131.4
68967.6
69884.4
70436.6
71408
71841.5
72839
73171.1
74218.6
74501.5
75562.1
75813.7
76890.8
77146.1
78118.9
78468.5
79269.3
79657.4
125731
125722
125676
125637
125563
125480
125380
125256
125121
124954
124777
124566
124340
124078
123797
123478
123133
122748
122329
121869
121372
120813
120256
119509
119050
117801
117844
115627
116424
113360
114236
111162
111646
107921
109635
103143
107658
97476.3
105055
90816.6
101869
82608.5
98090
71501.2
93663.4
55024.8
87290.3
30315
77614.2
-4948.2
63894.6
-54575.1
46073.9
-111847
30538.7
-82294.8
28183.9
-48213.6
33458.9
-21299.8
38638.2
-52.7369
43332.5
17003.2
47225.1
30059.4
51084.2
39596.1
54493.9
46795.1
57149.2
52763.3
59030.9
57490.4
61305.7
60631
63880.9
63311.1
65862.1
65943.9
67433.4
68131.7
68967.2
69883.5
70435.6
71406.3
71839.8
72836.9
73169.1
74216.4
74499.4
75560.4
75811.9
76889.7
77145.2
78118.3
78469.5
79267.7
79660.6
125737
125727
125681
125642
125568
125485
125385
125260
125125
124959
124782
124570
124345
124083
123802
123482
123137
122752
122334
121873
121376
120817
120260
119514
119054
117805
117847
115632
116425
113367
114236
111167
111649
107924
109638
103148
107657
97485
105053
90825.5
101870
82619.1
98096.8
71517.1
93678.5
55046.5
87306.9
30333.5
77624.3
-4938.88
63896.3
-54621.8
46039
-112022
30487.9
-82339.9
28153.6
-48210.6
33448.2
-21293.2
38635.9
-48.0579
43334.7
17009.3
47227.7
30068.2
51085.1
39606.7
54492.6
46804.8
57148.1
52768.4
59032
57492.1
61305
60633.9
63878.4
63314.5
65860.8
65945.7
67433.2
68132.1
68966.9
69882.6
70434.6
71404.6
71838.1
72834.8
73167
74214.2
74497.1
75558.6
75810
76888.7
77144.4
78117.7
78470.5
79266.2
79663.9
125742
125732
125687
125647
125573
125489
125390
125265
125130
124963
124786
124575
124349
124087
123806
123487
123141
122757
122338
121878
121380
120822
120264
119518
119057
117810
117849
115638
116426
113373
114237
111172
111651
107927
109640
103154
107656
97493.6
105051
90834.4
101871
82629.9
98103.6
71533.1
93693.8
55068.3
87323.7
30352.1
77634.5
-4929.47
63898.2
-54668.8
46003.8
-112199
30436.8
-82385.3
28123.3
-48207.4
33437.5
-21286.4
38633.6
-43.3344
43336.8
17015.4
47230.4
30076.9
51085.9
39617.5
54491.3
46814.5
57147
52773.4
59033
57493.8
61304.3
60636.8
63875.8
63318
65859.4
65947.5
67433
68132.4
68966.5
69881.7
70433.5
71402.9
71836.3
72832.6
73164.9
74211.9
74494.9
75556.8
75808
76887.6
77143.5
78117.2
78471.4
79264.7
79667.1
125748
125738
125692
125652
125578
125494
125395
125269
125134
124968
124791
124579
124354
124092
123811
123491
123146
122761
122343
121882
121385
120826
120269
119522
119061
117814
117852
115643
116427
113380
114238
111177
111654
107930
109643
103159
107655
97502.3
105049
90843.4
101872
82640.6
98110.4
71549.2
93709.1
55090.3
87340.5
30370.8
77644.7
-4919.97
63900
-54716.2
45968.3
-112377
30385.2
-82430.9
28092.8
-48204.2
33426.7
-21279.6
38631.3
-38.5669
43339
17021.5
47233.1
30085.8
51086.8
39628.3
54490
46824.3
57145.9
52778.6
59034.1
57495.5
61303.7
60639.8
63873.2
63321.4
65858
65949.4
67432.8
68132.7
68966.2
69880.8
70432.5
71401.2
71834.6
72830.5
73162.8
74209.6
74492.6
75555
75806.1
76886.6
77142.5
78116.6
78472.3
79263.2
79670.4
125754
125743
125697
125657
125583
125499
125399
125274
125139
124972
124796
124584
124359
124096
123816
123496
123151
122766
122347
121886
121389
120830
120273
119526
119065
117819
117854
115649
116428
113387
114238
111182
111658
107933
109646
103165
107654
97511.1
105046
90852.5
101873
82651.5
98117.2
71565.4
93724.6
55112.5
87357.4
30389.7
77655.1
-4910.37
63901.9
-54763.8
45932.6
-112556
30333.2
-82476.8
28062.1
-48200.9
33415.9
-21272.8
38628.9
-33.757
43341.2
17027.8
47235.8
30094.7
51087.7
39639.2
54488.7
46834.2
57144.8
52783.7
59035.2
57497.2
61303
60642.7
63870.6
63324.9
65856.6
65951.2
67432.6
68133.1
68965.8
69879.8
70431.4
71399.5
71832.8
72828.3
73160.7
74207.3
74490.3
75553.1
75804.1
76885.6
77141.6
78116.1
78473.2
79261.8
79673.6
125759
125749
125702
125662
125588
125503
125404
125279
125144
124977
124800
124588
124363
124101
123820
123500
123155
122770
122352
121891
121393
120835
120277
119530
119069
117823
117857
115655
116429
113394
114239
111187
111661
107937
109648
103171
107653
97519.8
105044
90861.5
101874
82662.3
98124.1
71581.6
93740.2
55134.8
87374.5
30408.7
77665.4
-4900.66
63903.9
-54811.8
45896.6
-112736
30280.6
-82522.9
28031.3
-48197.4
33404.9
-21265.8
38626.6
-28.9047
43343.4
17034
47238.6
30103.7
51088.6
39650.2
54487.4
46844.1
57143.7
52788.9
59036.3
57498.9
61302.3
60645.7
63868
63328.4
65855.2
65953.1
67432.4
68133.4
68965.5
69878.9
70430.4
71397.8
71831
72826.1
73158.5
74205
74488
75551.3
75802.1
76884.5
77140.6
78115.6
78474.1
79260.3
79676.9
125765
125754
125708
125667
125593
125508
125409
125283
125148
124982
124805
124593
124368
124106
123825
123505
123160
122775
122356
121895
121398
120839
120281
119534
119072
117828
117860
115660
116430
113400
114240
111192
111664
107940
109651
103176
107652
97528.7
105041
90870.6
101875
82673.2
98131
71597.9
93755.8
55157.3
87391.7
30427.9
77675.9
-4890.86
63905.9
-54860
45860.5
-112918
30227.6
-82569.4
28000.2
-48193.9
33394
-21258.8
38624.2
-24.0115
43345.7
17040.3
47241.4
30112.7
51089.6
39661.3
54486
46854.1
57142.6
52794.2
59037.4
57500.7
61301.7
60648.7
63865.4
63332
65853.8
65955.1
67432.2
68133.8
68965.1
69878
70429.3
71396.1
71829.2
72823.9
73156.4
74202.7
74485.7
75549.5
75800.1
76883.5
77139.5
78115.1
78474.9
79259
79680.1
125771
125759
125713
125672
125598
125513
125414
125288
125153
124986
124810
124598
124373
124110
123830
123510
123164
122780
122361
121900
121402
120843
120285
119539
119076
117832
117862
115666
116431
113407
114240
111197
111667
107943
109654
103182
107651
97537.5
105039
90879.7
101876
82684.2
98138
71614.3
93771.6
55180
87408.9
30447.2
77686.4
-4880.95
63908
-54908.6
45824.1
-113100
30174.2
-82616.1
27969
-48190.4
33382.9
-21251.8
38621.8
-19.0772
43347.9
17046.7
47244.2
30121.8
51090.5
39672.4
54484.7
46864.2
57141.4
52799.5
59038.5
57502.4
61301
60651.7
63862.8
63335.6
65852.3
65957
67432.1
68134.2
68964.8
69877
70428.2
71394.3
71827.4
72821.7
73154.2
74200.4
74483.3
75547.6
75798
76882.5
77138.5
78114.7
78475.8
79257.6
79683.4
125777
125765
125718
125677
125603
125518
125419
125293
125158
124991
124814
124602
124377
124115
123834
123514
123169
122784
122366
121904
121407
120848
120290
119543
119080
117837
117865
115672
116431
113414
114241
111203
111670
107946
109656
103188
107650
97546.4
105037
90888.9
101877
82695.2
98144.9
71630.7
93787.5
55202.8
87426.3
30466.6
77697
-4870.93
63910.2
-54957.4
45787.6
-113285
30120.2
-82663.1
27937.6
-48186.7
33371.8
-21244.6
38619.4
-14.1031
43350.2
17053.1
47247
30130.9
51091.5
39683.6
54483.4
46874.3
57140.3
52804.8
59039.6
57504.2
61300.3
60654.7
63860.2
63339.2
65850.9
65959
67431.9
68134.5
68964.5
69876.1
70427.2
71392.6
71825.6
72819.4
73152
74198
74480.9
75545.8
75795.9
76881.5
77137.4
78114.3
78476.5
79256.2
79686.7
125782
125771
125724
125682
125608
125523
125424
125298
125163
124996
124819
124607
124382
124120
123839
123519
123174
122789
122370
121909
121411
120852
120294
119547
119084
117841
117868
115678
116432
113421
114242
111208
111673
107949
109659
103194
107648
97555.4
105034
90898.1
101878
82706.2
98151.9
71647.2
93803.5
55225.8
87443.8
30486.2
77707.6
-4860.8
63912.4
-55006.4
45750.9
-113470
30065.8
-82710.4
27906.1
-48183
33360.6
-21237.5
38616.9
-9.08863
43352.4
17059.6
47249.8
30140.1
51092.5
39694.9
54482.1
46884.5
57139.2
52810.2
59040.7
57506
61299.6
60657.8
63857.5
63342.8
65849.5
65960.9
67431.7
68134.9
68964.1
69875.1
70426.1
71390.8
71823.8
72817.2
73149.8
74195.6
74478.4
75543.9
75793.7
76880.5
77136.2
78113.9
78477.3
79254.9
79690
125788
125776
125729
125687
125613
125528
125429
125302
125168
125001
124824
124612
124387
124124
123844
123524
123179
122794
122375
121913
121416
120857
120298
119552
119088
117846
117871
115684
116433
113428
114243
111213
111676
107953
109662
103200
107647
97564.4
105032
90907.3
101879
82717.3
98159
71663.8
93819.5
55249
87461.4
30505.9
77718.4
-4850.55
63914.7
-55055.7
45714
-113657
30010.8
-82758
27874.2
-48179.2
33349.3
-21230.2
38614.5
-4.0351
43354.7
17066.1
47252.7
30149.4
51093.5
39706.3
54480.7
46894.8
57138.1
52815.6
59041.8
57507.8
61298.9
60660.8
63854.9
63346.5
65848.1
65962.9
67431.6
68135.3
68963.8
69874.2
70425
71389
71822
72814.9
73147.5
74193.3
74476
75542
75791.5
76879.5
77135
78113.5
78478
79253.6
79693.3
125794
125782
125735
125693
125618
125533
125434
125307
125173
125005
124829
124617
124392
124129
123849
123529
123183
122798
122380
121918
121420
120861
120303
119556
119092
117851
117873
115690
116434
113435
114243
111218
111679
107956
109665
103206
107646
97573.4
105029
90916.5
101880
82728.4
98166
71680.5
93835.7
55272.4
87479.1
30525.8
77729.2
-4840.19
63917.1
-55105.2
45676.9
-113845
29955.4
-82805.9
27842.2
-48175.3
33337.9
-21222.9
38612
1.05857
43357
17072.7
47255.6
30158.7
51094.5
39717.7
54479.4
46905.1
57136.9
52821
59042.9
57509.5
61298.2
60663.9
63852.2
63350.2
65846.6
65965
67431.4
68135.8
68963.5
69873.3
70423.9
71387.2
71820.1
72812.6
73145.3
74190.9
74473.5
75540.1
75789.3
76878.5
77133.8
78113.2
78478.8
79252.4
79696.6
125800
125788
125740
125698
125623
125538
125439
125312
125177
125010
124834
124621
124397
124134
123853
123533
123188
122803
122384
121923
121425
120866
120307
119560
119096
117855
117876
115696
116435
113442
114244
111224
111683
107959
109667
103212
107645
97582.5
105027
90925.8
101881
82739.6
98173.1
71697.2
93852
55295.9
87497
30545.8
77740
-4829.72
63919.6
-55154.9
45639.7
-114034
29899.5
-82854.1
27810
-48171.4
33326.5
-21215.6
38609.5
6.19101
43359.3
17079.3
47258.5
30168.1
51095.5
39729.2
54478.1
46915.5
57135.8
52826.5
59044.1
57511.4
61297.5
60667
63849.5
63353.9
65845.2
65967
67431.3
68136.2
68963.1
69872.3
70422.8
71385.4
71818.3
72810.3
73143
74188.4
74471
75538.2
75787.1
76877.5
77132.6
78112.9
78479.4
79251.2
79699.9
125806
125793
125746
125703
125628
125543
125444
125317
125182
125015
124839
124626
124402
124139
123858
123538
123193
122808
122389
121927
121430
120870
120311
119565
119100
117860
117879
115702
116436
113449
114245
111229
111686
107963
109670
103218
107644
97591.6
105025
90935.1
101882
82750.8
98180.3
71714.1
93868.4
55319.6
87514.9
30565.9
77751
-4819.11
63922.2
-55204.8
45602.4
-114225
29843.2
-82902.5
27777.6
-48167.4
33315
-21208.1
38607
11.3637
43361.6
17085.9
47261.4
30177.6
51096.5
39740.8
54476.7
46926
57134.7
52832
59045.2
57513.2
61296.8
60670
63846.8
63357.6
65843.8
65969.1
67431.1
68136.6
68962.8
69871.3
70421.7
71383.6
71816.4
72808
73140.7
74186
74468.4
75536.3
75784.8
76876.5
77131.3
78112.6
78480.1
79250
79703.2
125812
125799
125752
125709
125634
125548
125449
125322
125187
125020
124844
124631
124406
124144
123863
123543
123198
122813
122394
121932
121434
120875
120316
119569
119104
117865
117882
115708
116437
113456
114246
111234
111689
107966
109673
103224
107643
97600.7
105022
90944.4
101883
82762
98187.4
71731
93885
55343.5
87533
30586.2
77762
-4808.39
63924.9
-55255
45564.9
-114417
29786.3
-82951.3
27744.9
-48163.3
33303.4
-21200.7
38604.4
16.5752
43364
17092.7
47264.4
30187.1
51097.6
39752.5
54475.4
46936.5
57133.5
52837.6
59046.3
57515
61296.1
60673.2
63844.1
63361.4
65842.3
65971.2
67431
68137
68962.5
69870.4
70420.6
71381.8
71814.5
72805.6
73138.4
74183.5
74465.9
75534.4
75782.5
76875.6
77130
78112.4
78480.7
79248.8
79706.5
125818
125805
125757
125714
125639
125553
125454
125327
125192
125025
124849
124636
124411
124149
123868
123548
123203
122818
122399
121937
121439
120879
120320
119574
119108
117870
117884
115714
116438
113463
114247
111239
111692
107969
109676
103230
107642
97609.9
105020
90953.8
101883
82773.3
98194.6
71747.9
93901.6
55367.6
87551.2
30606.7
77773.1
-4797.54
63927.7
-55305.3
45527.2
-114611
29729
-83000.3
27712.1
-48159.1
33291.8
-21193.1
38601.9
21.8273
43366.3
17099.4
47267.4
30196.7
51098.7
39764.3
54474
46947.1
57132.3
52843.2
59047.4
57516.8
61295.4
60676.3
63841.4
63365.2
65840.9
65973.3
67430.8
68137.5
68962.1
69869.4
70419.4
71380
71812.6
72803.3
73136
74181.1
74463.3
75532.5
75780.1
76874.6
77128.6
78112.2
78481.3
79247.7
79709.9
125825
125811
125763
125719
125644
125558
125459
125332
125197
125030
124853
124641
124416
124154
123873
123553
123208
122822
122404
121942
121444
120884
120325
119578
119112
117875
117887
115720
116439
113471
114247
111245
111696
107973
109678
103236
107641
97619.1
105017
90963.2
101884
82784.7
98201.9
71765
93918.3
55391.8
87569.5
30627.3
77784.3
-4786.56
63930.6
-55355.7
45489.3
-114806
29671.2
-83049.6
27679
-48154.9
33280.1
-21185.5
38599.3
27.1184
43368.7
17106.2
47270.4
30206.3
51099.8
39776.1
54472.7
46957.7
57131.2
52848.9
59048.5
57518.7
61294.7
60679.4
63838.6
63369.1
65839.4
65975.5
67430.7
68138
68961.8
69868.5
70418.3
71378.1
71810.7
72800.9
73133.7
74178.6
74460.6
75530.6
75777.7
76873.6
77127.2
78112
78481.9
79246.6