/*--------------------------------*- C++ -*----------------------------------*\
| =========                 |                                                 |
| \\      /  F ield         | OpenFOAM: The Open Source CFD Toolbox           |
|  \\    /   O peration     | Version:  2412                                  |
|   \\  /    A nd           | Website:  www.openfoam.com                      |
|    \\/     M anipulation  |                                                 |
\*---------------------------------------------------------------------------*/
FoamFile
{
    version     2.0;
    format      ascii;
    arch        "LSB;label=32;scalar=64";
    class       surfaceScalarField;
    location    "0.1";
    object      phi;
}
// * * * * * * * * * * * * * * * * * * * * * * * * * * * * * * * * * * * * * //

dimensions      [0 3 -1 0 0 0 0];

oriented        oriented;

internalField   nonuniform List<scalar> 
25689
(
0.00749101
0.0114367
0.00747694
0.000958942
0.00751403
-0.00679941
0.00756364
-0.00853518
0.00760591
-0.0073425
0.00763959
-0.00596264
0.00766812
-0.00506829
0.00769262
-0.00436206
0.00771372
-0.00376969
0.00773166
-0.00322619
0.00774685
-0.00276219
0.0077596
-0.0023462
0.00777018
-0.00198988
0.00777884
-0.00167177
0.00778581
-0.00140024
0.00779126
-0.00115652
0.00779532
-0.000940264
0.00779821
-0.000757179
0.00780005
-0.000597391
0.00780102
-0.000462561
0.00780124
-0.000351591
0.00780083
-0.000255175
0.00779988
-0.0001717
0.0077986
-0.000120278
0.00779695
-6.14777e-05
0.00779528
-5.56703e-05
0.00779321
4.38207e-06
0.00779174
-7.08439e-05
0.00778929
4.91027e-05
0.00778859
-0.000174621
0.007786
4.49666e-05
0.00778637
-0.000350993
0.00778406
-3.51131e-05
0.0077861
-0.000635306
0.00778462
-0.000227967
0.00778956
-0.00110622
0.00778989
-0.000563674
0.00780047
-0.00190083
0.00780562
-0.001125
0.0078258
-0.00302009
0.00783806
-0.00181767
0.00786917
-0.00407175
0.00788681
-0.00201586
0.00792228
-0.00413488
0.00793197
-0.000573477
0.0079507
-0.00196055
0.0079301
0.00321896
0.00792539
0.00178494
0.00789137
0.0068234
0.00785852
0.00813656
0.00779223
0.0147433
0.00762715
0.0302621
0.00734547
0.0478781
0.00735692
8.82849e-05
0.00754507
-0.0322839
0.0076416
-0.0179943
0.00766525
-0.00699126
0.00768254
-0.00481745
0.0076819
-0.000954275
0.00769196
-0.0020871
0.00768839
0.000140322
0.0076983
-0.00162681
0.00769723
1.27208e-05
0.00770801
-0.00156438
0.00770761
-4.27237e-06
0.00771585
-0.0011726
0.00771192
0.000385309
0.00771282
-0.000405355
0.00770334
0.000916984
0.00769725
0.00040747
0.00768312
0.00140663
0.00767067
0.00107298
0.00765381
0.00166629
0.00763951
0.00131243
0.00762421
0.00154277
0.00761254
0.00111236
0.00760162
0.00110721
0.00759279
0.000806647
0.0075842
0.000752592
0.00757597
0.000594726
0.00756749
0.000523784
0.00755832
0.000443865
0.0075491
0.000300857
0.00753948
0.000171409
0.0075309
-0.000123786
0.00752287
-0.000380987
0.00751718
-0.000856111
0.0075135
-0.00130931
0.00751386
-0.00200892
0.00751851
-0.00272062
0.00752918
-0.00365217
0.00754786
-0.00471885
0.00757482
-0.00589692
0.00761542
-0.00736002
0.00766658
-0.00876438
0.00773674
-0.0104895
0.0078198
-0.0121107
0.00792017
-0.0136682
-0.0157751
0.00749097
0.0115215
0.00747665
0.000973259
0.00751343
-0.0068362
0.00756279
-0.00858454
0.00760484
-0.00738455
0.00763832
-0.00599612
0.00766665
-0.00509662
0.00769099
-0.0043864
0.00771194
-0.00379065
0.00772977
-0.00324402
0.00774485
-0.00277727
0.00775751
-0.00235886
0.007768
-0.00200038
0.00777659
-0.00168037
0.00778349
-0.00140714
0.00778889
-0.00116192
0.00779289
-0.000944269
0.00779574
-0.000760026
0.00779753
-0.000599183
0.00779844
-0.000463482
0.00779863
-0.000351776
0.00779818
-0.00025473
0.00779718
-0.000170705
0.00779586
-0.000118958
0.00779417
-5.97883e-05
0.00779247
-5.39767e-05
0.00779035
6.49411e-06
0.00778885
-6.9342e-05
0.00778636
5.15891e-05
0.00778561
-0.000173879
0.00778298
4.75953e-05
0.00778331
-0.000351328
0.00778095
-3.27552e-05
0.00778293
-0.000637301
0.00778138
-0.000226419
0.00778626
-0.00111111
0.00778651
-0.000563921
0.00779701
-0.00191135
0.00780209
-0.00113008
0.00782222
-0.00304023
0.00783446
-0.0018299
0.0078656
-0.00410289
0.0078833
-0.00203357
0.00791892
-0.00417049
0.00792872
-0.000583289
0.00794754
-0.00197937
0.00792693
0.00323956
0.00792232
0.00178954
0.00788849
0.00685722
0.00785627
0.00816878
0.00779084
0.0148087
0.00762733
0.0304257
0.00734773
0.0481577
0.00735911
7.69279e-05
0.00754582
-0.0324707
0.00764145
-0.0180899
0.00766439
-0.00701423
0.0076814
-0.0048344
0.00768059
-0.000953473
0.00769059
-0.00209708
0.00768697
0.000143943
0.00769687
-0.0016367
0.0076958
1.37908e-05
0.0077066
-0.00157517
0.00770621
-3.88104e-06
0.00771448
-0.00118086
0.00771056
0.000389227
0.00771146
-0.000406261
0.00770197
0.000926475
0.00769587
0.000413569
0.00768173
0.00142078
0.00766925
0.00108546
0.00765237
0.00168318
0.00763804
0.00132677
0.00762272
0.00155809
0.00761104
0.00112404
0.00760013
0.00111812
0.00759132
0.000815464
0.00758275
0.000761163
0.00757454
0.000602941
0.00756606
0.000532267
0.00755687
0.000453055
0.00754762
0.000310108
0.00753797
0.000181067
0.00752934
-0.000115154
0.00752126
-0.000372899
0.00751551
-0.000850353
0.00751176
-0.00130555
0.00751204
-0.00200921
0.0075166
-0.00272517
0.00752718
-0.00366275
0.00754578
-0.00473744
0.00757264
-0.00592379
0.00761318
-0.00740055
0.00766429
-0.00881549
0.0077345
-0.0105597
0.00781763
-0.0121939
0.00791814
-0.0137687
-0.0158916
0.00749091
0.0116064
0.00747633
0.000987834
0.00751281
-0.00687267
0.00756192
-0.00863366
0.00760376
-0.00742638
0.00763703
-0.00602939
0.00766517
-0.00512477
0.00768935
-0.00441058
0.00771016
-0.00381146
0.00772787
-0.00326172
0.00774285
-0.00279225
0.00775541
-0.00237142
0.00776583
-0.00201079
0.00777435
-0.00168889
0.00778118
-0.00141398
0.00778653
-0.00116726
0.00779048
-0.000948221
0.00779327
-0.000762825
0.00779502
-0.000600928
0.00779589
-0.000464359
0.00779603
-0.000351917
0.00779554
-0.000254244
0.00779451
-0.00016967
0.00779315
-0.000117602
0.00779141
-5.80565e-05
0.00778968
-5.22507e-05
0.00778753
8.64743e-06
0.00778599
-6.78034e-05
0.00778346
5.41111e-05
0.00778267
-0.000173092
0.00778
5.02615e-05
0.00778029
-0.000351618
0.00777787
-3.03393e-05
0.00777981
-0.000639249
0.00777818
-0.000224799
0.007783
-0.00111594
0.00778316
-0.000564084
0.00779359
-0.00192179
0.00779859
-0.00113508
0.00781867
-0.00306031
0.00783087
-0.00184211
0.00786205
-0.00413406
0.00787982
-0.00205135
0.00791557
-0.00420625
0.00792549
-0.000593212
0.00794439
-0.00199827
0.00792376
0.00326018
0.00791925
0.00179403
0.00788558
0.00689089
0.00785399
0.00820036
0.00778939
0.0148732
0.00762742
0.0305877
0.00734992
0.0484352
0.00736123
6.56426e-05
0.0075465
-0.032656
0.00764121
-0.0181846
0.00766346
-0.00703651
0.00768023
-0.00485112
0.00767927
-0.000952514
0.00768921
-0.00210699
0.00768555
0.000147608
0.00769546
-0.0016466
0.0076944
1.48566e-05
0.00770523
-0.00158599
0.00770485
-3.50821e-06
0.00771315
-0.00118914
0.00770924
0.000393136
0.00771016
-0.000407177
0.00770066
0.000935974
0.00769456
0.00041967
0.00768039
0.00143494
0.0076679
0.00109795
0.00765098
0.0017001
0.00763663
0.00134112
0.00762129
0.00157343
0.00760961
0.00113573
0.0075987
0.00112903
0.00758991
0.000824261
0.00758136
0.000769715
0.00757317
0.00061114
0.00756468
0.000540752
0.00755548
0.000462258
0.00754621
0.000319389
0.00753651
0.000190766
0.00752784
-0.000106474
0.0075197
-0.000364753
0.00751388
-0.000844532
0.00751005
-0.00130172
0.00751026
-0.00200942
0.00751472
-0.00272963
0.00752522
-0.00367324
0.00754371
-0.00475593
0.00757049
-0.00595056
0.00761096
-0.00744101
0.00766202
-0.00886654
0.00773228
-0.01063
0.00781548
-0.0122771
0.00791612
-0.0138693
-0.0160083
0.00749085
0.0116913
0.00747602
0.00100266
0.00751219
-0.00690884
0.00756106
-0.00868253
0.00760268
-0.007468
0.00763574
-0.00606245
0.00766369
-0.00515273
0.00768771
-0.0044346
0.00770839
-0.00383214
0.00772597
-0.00327931
0.00774085
-0.00280713
0.00775332
-0.0023839
0.00776366
-0.00202113
0.00777212
-0.00169735
0.00777889
-0.00142075
0.00778418
-0.00117255
0.00778808
-0.000952123
0.00779083
-0.000765576
0.00779253
-0.00060263
0.00779336
-0.000465194
0.00779346
-0.000352019
0.00779293
-0.00025372
0.00779185
-0.000168596
0.00779046
-0.000116211
0.00778869
-5.62859e-05
0.00778693
-5.04929e-05
0.00778473
1.08396e-05
0.00778316
-6.6231e-05
0.0077806
5.66677e-05
0.00777976
-0.000172262
0.00777706
5.29633e-05
0.00777729
-0.000351862
0.00777482
-2.78703e-05
0.00777671
-0.00064115
0.00777502
-0.000223107
0.00777978
-0.00112071
0.00777985
-0.000564163
0.0077902
-0.00193215
0.00779513
-0.00114001
0.00781515
-0.00308034
0.00782732
-0.00185429
0.00785852
-0.00416527
0.00787637
-0.0020692
0.00791226
-0.00424215
0.00792228
-0.000603241
0.00794126
-0.00201725
0.00792059
0.00328084
0.00791618
0.00179844
0.00788264
0.00692442
0.00785168
0.00823133
0.00778788
0.014937
0.00762741
0.0307482
0.00735205
0.0487105
0.00736328
5.44368e-05
0.00754709
-0.0328398
0.00764089
-0.0182784
0.00766246
-0.00705812
0.00767904
-0.00486765
0.00767794
-0.000951413
0.00768782
-0.00211686
0.00768413
0.000151305
0.00769407
-0.00165652
0.00769301
1.5907e-05
0.00770388
-0.00159684
0.00770353
-3.16208e-06
0.00771186
-0.00119746
0.00770797
0.000397028
0.0077089
-0.000408106
0.00769939
0.000945481
0.00769329
0.000425769
0.00767911
0.00144912
0.0076666
0.00111047
0.00764964
0.00171706
0.00763526
0.00135551
0.00761991
0.00158878
0.00760822
0.00114743
0.00759732
0.00113992
0.00758855
0.000833037
0.00758002
0.000778246
0.00757184
0.000619325
0.00756336
0.000549238
0.00755414
0.000471476
0.00754484
0.0003287
0.0075351
0.000200505
0.00752638
-9.77452e-05
0.00751818
-0.000356549
0.0075123
-0.000838648
0.00750839
-0.00129781
0.00750852
-0.00200954
0.00751289
-0.00273399
0.00752329
-0.00368364
0.00754168
-0.00477433
0.00756836
-0.00597724
0.00760876
-0.00748141
0.00765977
-0.00891755
0.00773008
-0.0107003
0.00781335
-0.0123603
0.00791414
-0.0139701
-0.0161251
0.00749079
0.0117762
0.00747572
0.00101773
0.00751158
-0.0069447
0.0075602
-0.00873115
0.0076016
-0.0075094
0.00763445
-0.00609531
0.00766222
-0.0051805
0.00768607
-0.00445845
0.00770661
-0.00385268
0.00772408
-0.00329678
0.00773886
-0.00282191
0.00775124
-0.00239629
0.0077615
-0.00203139
0.00776989
-0.00170574
0.0077766
-0.00142747
0.00778184
-0.00117779
0.00778569
-0.000955975
0.00778839
-0.000768281
0.00779005
-0.000604288
0.00779084
-0.000465987
0.0077909
-0.00035208
0.00779033
-0.000253157
0.00778922
-0.000167484
0.00778779
-0.000114786
0.00778598
-5.44769e-05
0.00778419
-4.87039e-05
0.00778196
1.30703e-05
0.00778035
-6.46261e-05
0.00777775
5.92607e-05
0.00777688
-0.000171392
0.00777414
5.57015e-05
0.00777433
-0.000352061
0.00777181
-2.535e-05
0.00777365
-0.000643001
0.00777189
-0.000221347
0.00777659
-0.00112541
0.00777658
-0.000564156
0.00778685
-0.00194243
0.00779169
-0.00114485
0.00781166
-0.00310031
0.0078238
-0.00186643
0.00785503
-0.0041965
0.00787294
-0.00208711
0.00790897
-0.00427818
0.00791909
-0.000613371
0.00793815
-0.00203632
0.00791743
0.00330154
0.0079131
0.00180277
0.00787968
0.00695784
0.00784935
0.00826166
0.0077863
0.015
0.0076273
0.0309072
0.00735412
0.0489837
0.00736526
4.33229e-05
0.0075476
-0.0330222
0.00764048
-0.0183712
0.0076614
-0.00707906
0.00767782
-0.00488402
0.00767658
-0.000950179
0.00768643
-0.00212669
0.00768272
0.000155024
0.00769268
-0.00166648
0.00769165
1.69382e-05
0.00770256
-0.00160773
0.00770224
-2.84527e-06
0.00771061
-0.00120582
0.00770673
0.000400904
0.00770768
-0.000409052
0.00769817
0.000954992
0.00769207
0.000431865
0.00767787
0.00146332
0.00766534
0.00112301
0.00764835
0.00173404
0.00763395
0.00136992
0.00761858
0.00160415
0.00760687
0.00115914
0.00759599
0.00115081
0.00758724
0.000841793
0.00757873
0.000786759
0.00757056
0.000627495
0.00756208
0.000557726
0.00755285
0.000480708
0.00754351
0.000338042
0.00753373
0.000210286
0.00752496
-8.89651e-05
0.0075167
-0.000348284
0.00751075
-0.000832698
0.00750677
-0.00129382
0.00750681
-0.00200958
0.00751108
-0.00273825
0.00752139
-0.00369394
0.00753968
-0.00479261
0.00756627
-0.00600382
0.0076066
-0.00752173
0.00765755
-0.00896849
0.00772791
-0.0107707
0.00781125
-0.0124437
0.00791219
-0.014071
-0.016242
0.00749074
0.0118612
0.00747543
0.00103304
0.00751099
-0.00698026
0.00755935
-0.00877951
0.00760052
-0.00755057
0.00763316
-0.00612795
0.00766075
-0.00520808
0.00768444
-0.00448215
0.00770484
-0.00387309
0.00772219
-0.00331414
0.00773687
-0.00283658
0.00774917
-0.00240859
0.00775935
-0.00204158
0.00776767
-0.00171406
0.00777433
-0.00143413
0.00777951
-0.00118297
0.00778331
-0.000959779
0.00778597
-0.000770941
0.00778758
-0.000605904
0.00778833
-0.000466741
0.00778835
-0.000352103
0.00778775
-0.000252559
0.0077866
-0.000166336
0.00778514
-0.000113327
0.00778329
-5.26326e-05
0.00778147
-4.68841e-05
0.0077792
1.53368e-05
0.00777756
-6.29911e-05
0.00777493
6.18891e-05
0.00777402
-0.000170485
0.00777125
5.84751e-05
0.00777139
-0.000352216
0.00776882
-2.27817e-05
0.00777062
-0.000644803
0.00776879
-0.00021952
0.00777342
-0.00113006
0.00777333
-0.000564064
0.00778352
-0.00195264
0.00778828
-0.00114961
0.0078082
-0.00312023
0.0078203
-0.00187854
0.00785156
-0.00422776
0.00786953
-0.00210509
0.0079057
-0.00431434
0.00791592
-0.000623597
0.00793505
-0.00205545
0.00791428
0.0033223
0.00791002
0.00180702
0.00787669
0.00699117
0.00784698
0.00829138
0.00778465
0.0150623
0.00762709
0.0310648
0.00735612
0.0492546
0.00736716
3.2305e-05
0.00754802
-0.0332031
0.00763999
-0.0184632
0.00766028
-0.00709937
0.00767657
-0.00490027
0.00767521
-0.000948824
0.00768504
-0.0021365
0.00768131
0.000158756
0.00769131
-0.00167647
0.00769031
1.79405e-05
0.00770126
-0.00161867
0.00770098
-2.56448e-06
0.00770939
-0.00121422
0.00770554
0.000404757
0.0077065
-0.000410016
0.00769699
0.000964508
0.0076909
0.000437956
0.00767668
0.00147754
0.00766413
0.00113557
0.00764711
0.00175106
0.00763267
0.00138436
0.00761729
0.00161954
0.00760558
0.00117085
0.0075947
0.00116168
0.00758597
0.000850528
0.00757748
0.000795252
0.00756932
0.000635651
0.00756084
0.000566215
0.00755159
0.000489957
0.00754222
0.000347417
0.0075324
0.00022011
0.00752357
-8.01336e-05
0.00751525
-0.000339958
0.00750924
-0.000826682
0.00750518
-0.00128976
0.00750514
-0.00200954
0.0075093
-0.00274241
0.00751952
-0.00370415
0.00753771
-0.0048108
0.0075642
-0.0060303
0.00760445
-0.00756199
0.00765535
-0.00901939
0.00772576
-0.0108411
0.00780917
-0.0125271
0.00791026
-0.0141721
-0.0163591
0.00749068
0.0119463
0.00747514
0.00104857
0.0075104
-0.00701552
0.0075585
-0.00882762
0.00759945
-0.00759151
0.00763188
-0.00616038
0.00765928
-0.00523548
0.00768281
-0.00450569
0.00770308
-0.00389335
0.00772031
-0.00333137
0.00773488
-0.00285115
0.0077471
-0.00242081
0.0077572
-0.00205169
0.00776546
-0.00172232
0.00777206
-0.00144072
0.00777718
-0.0011881
0.00778094
-0.000963534
0.00778355
-0.000773556
0.00778513
-0.000607479
0.00778584
-0.000467455
0.00778582
-0.000352089
0.00778518
-0.000251924
0.007784
-0.000165152
0.0077825
-0.000111834
0.00778062
-5.07533e-05
0.00777877
-4.5034e-05
0.00777647
1.76388e-05
0.0077748
-6.13262e-05
0.00777213
6.45535e-05
0.00777119
-0.000169543
0.00776837
6.12862e-05
0.00776848
-0.000352328
0.00776586
-2.01659e-05
0.00776761
-0.000646553
0.00776571
-0.000217628
0.00777029
-0.00113464
0.00777011
-0.000563886
0.00778023
-0.00196277
0.00778489
-0.00115428
0.00780476
-0.0031401
0.00781682
-0.00189061
0.00784811
-0.00425905
0.00786615
-0.00212312
0.00790245
-0.00435064
0.00791276
-0.000633916
0.00793196
-0.00207465
0.00791113
0.00334313
0.00790694
0.0018112
0.00787368
0.00702442
0.00784458
0.00832048
0.00778293
0.0151239
0.00762679
0.031221
0.00735805
0.0495233
0.00736899
2.13902e-05
0.00754837
-0.0333825
0.00763942
-0.0185543
0.0076591
-0.00711906
0.00767529
-0.00491642
0.00767382
-0.000947359
0.00768363
-0.00214629
0.0076799
0.000162494
0.00768996
-0.00168652
0.00768899
1.89102e-05
0.00769999
-0.00162966
0.00769975
-2.32252e-06
0.00770821
-0.00122267
0.00770438
0.000408589
0.00770536
-0.000411002
0.00769584
0.000974027
0.00768976
0.000444042
0.00767552
0.00149177
0.00766295
0.00114814
0.0076459
0.00176811
0.00763144
0.00139883
0.00761604
0.00163494
0.00760432
0.00118258
0.00759345
0.00117255
0.00758474
0.000859241
0.00757627
0.000803726
0.00756813
0.000643794
0.00755964
0.000574706
0.00755038
0.000499222
0.00754097
0.000356825
0.00753111
0.000229979
0.00752223
-7.12488e-05
0.00751384
-0.00033157
0.00750776
-0.000820598
0.00750361
-0.0012856
0.00750349
-0.00200942
0.00750755
-0.00274647
0.00751767
-0.00371426
0.00753576
-0.00482888
0.00756214
-0.00605669
0.00760233
-0.00760217
0.00765317
-0.00907023
0.00772363
-0.0109115
0.00780712
-0.0126105
0.00790836
-0.0142734
-0.0164763
0.00749063
0.0120314
0.00747487
0.00106434
0.00750982
-0.00705048
0.00755766
-0.00887546
0.00759837
-0.00763222
0.00763059
-0.0061926
0.00765781
-0.0052627
0.00768118
-0.00452907
0.00770131
-0.00391348
0.00771843
-0.00334849
0.0077329
-0.00286563
0.00774503
-0.00243294
0.00775506
-0.00206173
0.00776325
-0.00173051
0.00776979
-0.00144726
0.00777487
-0.00119318
0.00777857
-0.000967243
0.00778114
-0.000776129
0.00778268
-0.000609013
0.00778335
-0.00046813
0.0077833
-0.000352038
0.00778263
-0.000251254
0.00778141
-0.000163935
0.00777988
-0.00011031
0.00777797
-4.88414e-05
0.00777608
-4.31547e-05
0.00777375
1.99743e-05
0.00777205
-5.96333e-05
0.00776935
6.7252e-05
0.00776837
-0.000168569
0.00776552
6.41331e-05
0.00776559
-0.0003524
0.00776292
-1.75042e-05
0.00776462
-0.000648252
0.00776266
-0.000215672
0.00776717
-0.00113916
0.0077669
-0.000563622
0.00777695
-0.00197282
0.00778153
-0.00115886
0.00780134
-0.00315991
0.00781337
-0.00190264
0.00784469
-0.00429037
0.00786278
-0.00214122
0.00789921
-0.00438708
0.00790961
-0.000644322
0.00792888
-0.00209392
0.00790798
0.00336403
0.00790385
0.00181533
0.00787064
0.00705761
0.00784216
0.00834898
0.00778115
0.0151849
0.00762638
0.0313758
0.00735991
0.0497898
0.00737075
1.05779e-05
0.00754863
-0.0335604
0.00763877
-0.0186444
0.00765786
-0.00713816
0.00767398
-0.00493252
0.00767242
-0.000945793
0.00768222
-0.00215608
0.00767849
0.000166229
0.00768861
-0.00169663
0.00768768
1.98386e-05
0.00769874
-0.00164071
0.00769854
-2.1249e-06
0.00770705
-0.00123117
0.00770324
0.000412394
0.00770426
-0.000412013
0.00769473
0.000983547
0.00768866
0.000450121
0.00767441
0.00150602
0.00766181
0.00116074
0.00764474
0.00178519
0.00763025
0.00141332
0.00761482
0.00165037
0.0076031
0.00119431
0.00759224
0.00118341
0.00758355
0.000867933
0.00757509
0.000812183
0.00756696
0.000651925
0.00755847
0.0005832
0.00754919
0.000508506
0.00753976
0.000366267
0.00752984
0.000239894
0.00752091
-6.23104e-05
0.00751246
-0.000323117
0.00750631
-0.000814445
0.00750208
-0.00128137
0.00750187
-0.0020092
0.00750583
-0.00275043
0.00751585
-0.00372428
0.00753382
-0.00484685
0.00756011
-0.00608297
0.00760022
-0.00764227
0.007651
-0.00912101
0.00772152
-0.010982
0.00780508
-0.0126941
0.00790648
-0.0143748
-0.0165937
0.00749059
0.0121166
0.0074746
0.00108032
0.00750925
-0.00708514
0.00755683
-0.00892303
0.0075973
-0.0076727
0.00762931
-0.00622461
0.00765633
-0.00528973
0.00767955
-0.00455228
0.00769954
-0.00393347
0.00771654
-0.00336549
0.00773092
-0.00288
0.00774296
-0.00244498
0.00775292
-0.00207169
0.00776104
-0.00173864
0.00776753
-0.00145375
0.00777255
-0.00119821
0.00777621
-0.000970906
0.00777874
-0.000778658
0.00778023
-0.000610507
0.00778087
-0.000468768
0.00778078
-0.000351951
0.00778007
-0.000250549
0.00777882
-0.000162684
0.00777726
-0.000108753
0.00777532
-4.6897e-05
0.00777341
-4.12456e-05
0.00777104
2.23423e-05
0.00776931
-5.79116e-05
0.00776658
6.99851e-05
0.00776557
-0.000167564
0.00776268
6.70174e-05
0.00776271
-0.000352433
0.00776
-1.47964e-05
0.00776164
-0.0006499
0.00775962
-0.000213654
0.00776407
-0.00114362
0.00776372
-0.000563273
0.00777368
-0.00198279
0.00777817
-0.00116335
0.00779793
-0.00317967
0.00780992
-0.00191464
0.00784127
-0.00432172
0.00785942
-0.00215938
0.00789599
-0.00442365
0.00790648
-0.000654814
0.00792581
-0.00211326
0.00790483
0.003385
0.00790075
0.0018194
0.00786758
0.00709077
0.0078397
0.00837686
0.00777931
0.0152452
0.00762589
0.0315292
0.00736171
0.0500539
0.00737244
-1.3024e-07
0.00754882
-0.0337368
0.00763806
-0.0187336
0.00765656
-0.00715667
0.00767266
-0.00494858
0.007671
-0.000944136
0.0076808
-0.00216586
0.00767708
0.000169955
0.00768727
-0.0017068
0.00768639
2.07236e-05
0.00769751
-0.00165182
0.00769736
-1.97352e-06
0.00770592
-0.00123972
0.00770214
0.000416173
0.00770318
-0.000413049
0.00769366
0.000993067
0.00768759
0.000456192
0.00767332
0.00152029
0.00766071
0.00117335
0.0076436
0.00180229
0.00762908
0.00142785
0.00761364
0.00166581
0.0076019
0.00120605
0.00759105
0.00119427
0.00758238
0.000876604
0.00757395
0.00082062
0.00756583
0.000660042
0.00755734
0.000591697
0.00754804
0.000517808
0.00753857
0.000375744
0.00752861
0.000249855
0.00751962
-5.33171e-05
0.0075111
-0.000314599
0.00750488
-0.000808221
0.00750057
-0.00127705
0.00750027
-0.0020089
0.00750412
-0.00275428
0.00751404
-0.0037342
0.00753191
-0.00486471
0.00755809
-0.00610915
0.00759812
-0.0076823
0.00764885
-0.00917172
0.00771941
-0.0110526
0.00780305
-0.0127777
0.00790461
-0.0144763
-0.0167112
0.00749054
0.0122018
0.00747434
0.00109652
0.00750869
-0.00711949
0.00755599
-0.00897033
0.00759623
-0.00771294
0.00762802
-0.0062564
0.00765486
-0.00531657
0.00767792
-0.00457534
0.00769777
-0.00395333
0.00771466
-0.00338238
0.00772893
-0.00289427
0.00774089
-0.00245694
0.00775077
-0.00208157
0.00775884
-0.0017467
0.00776526
-0.00146017
0.00777024
-0.00120318
0.00777385
-0.000974523
0.00777634
-0.000781146
0.00777779
-0.000611962
0.00777839
-0.000469369
0.00777827
-0.000351829
0.00777753
-0.000249811
0.00777624
-0.000161401
0.00777465
-0.000107165
0.00777267
-4.49221e-05
0.00777073
-3.93078e-05
0.00776833
2.47412e-05
0.00776658
-5.61629e-05
0.00776381
7.27509e-05
0.00776277
-0.000166528
0.00775985
6.99371e-05
0.00775984
-0.000352427
0.00775708
-1.20435e-05
0.00775868
-0.000651498
0.00775659
-0.000211574
0.00776098
-0.00114802
0.00776055
-0.000562839
0.00777043
-0.00199269
0.00777483
-0.00116775
0.00779453
-0.00319938
0.00780648
-0.00192659
0.00783786
-0.0043531
0.00785608
-0.0021776
0.00789277
-0.00446035
0.00790334
-0.000665388
0.00792274
-0.00213265
0.00790167
0.00340606
0.00789764
0.00182343
0.0078645
0.0071239
0.00783722
0.00840414
0.00777742
0.015305
0.0076253
0.0316813
0.00736344
0.0503158
0.00737407
-1.07392e-05
0.00754894
-0.0339117
0.00763727
-0.018822
0.00765522
-0.00717463
0.00767131
-0.00496464
0.00766957
-0.000942394
0.00767937
-0.00217565
0.00767567
0.000173663
0.00768593
-0.00171706
0.0076851
2.15568e-05
0.00769629
-0.001663
0.00769619
-1.87252e-06
0.00770481
-0.00124833
0.00770106
0.000419921
0.00770212
-0.000414115
0.0076926
0.00100259
0.00768654
0.000462257
0.00767226
0.00153457
0.00765963
0.00118599
0.00764249
0.00181943
0.00762794
0.0014424
0.00761248
0.00168127
0.00760074
0.00121779
0.00758989
0.00120512
0.00758124
0.000885254
0.00757283
0.000829039
0.00756472
0.000668148
0.00755623
0.000600197
0.00754691
0.000527129
0.0075374
0.000385256
0.00752739
0.000259864
0.00751835
-4.4268e-05
0.00750977
-0.000306014
0.00750348
-0.000801925
0.00749907
-0.00127264
0.00749869
-0.00200851
0.00750243
-0.00275802
0.00751225
-0.00374401
0.00753
-0.00488246
0.00755608
-0.00613522
0.00759603
-0.00772225
0.00764669
-0.00922238
0.00771731
-0.0111232
0.00780102
-0.0128614
0.00790276
-0.0145781
-0.0168288
0.00749049
0.0122871
0.00747408
0.00111293
0.00750814
-0.00715355
0.00755516
-0.00901736
0.00759516
-0.00775293
0.00762673
-0.00628798
0.00765339
-0.00534323
0.00767628
-0.00459824
0.007696
-0.00397305
0.00771277
-0.00339915
0.00772694
-0.00290844
0.00773881
-0.00246881
0.00774863
-0.00209139
0.00775662
-0.0017547
0.00776299
-0.00146654
0.00776792
-0.00120811
0.00777149
-0.000978094
0.00777393
-0.000783592
0.00777535
-0.000613378
0.00777591
-0.000469933
0.00777575
-0.000351672
0.00777498
-0.000249039
0.00777366
-0.000160086
0.00777204
-0.000105546
0.00777003
-4.29161e-05
0.00776806
-3.73414e-05
0.00776563
2.71711e-05
0.00776385
-5.43865e-05
0.00776105
7.55497e-05
0.00775998
-0.000165462
0.00775703
7.28938e-05
0.00775698
-0.000352384
0.00775418
-9.24483e-06
0.00775572
-0.000653046
0.00775357
-0.000209434
0.0077579
-0.00115235
0.00775738
-0.000562319
0.00776719
-0.0020025
0.00777149
-0.00117205
0.00779114
-0.00321903
0.00780305
-0.00193851
0.00783446
-0.00438451
0.00785273
-0.00219588
0.00788956
-0.00449719
0.00790021
-0.000676041
0.00791967
-0.00215211
0.00789851
0.0034272
0.00789452
0.00182742
0.00786139
0.00715702
0.00783472
0.00843081
0.00777546
0.0153643
0.00762464
0.0318322
0.00736511
0.0505753
0.00737564
-2.12524e-05
0.007549
-0.0340851
0.00763643
-0.0189094
0.00765384
-0.00719204
0.00766994
-0.00498072
0.00766813
-0.000940576
0.00767794
-0.00218545
0.00767426
0.000177352
0.0076846
-0.00172739
0.00768382
2.2338e-05
0.00769508
-0.00167424
0.00769503
-1.82392e-06
0.00770371
-0.001257
0.00769999
0.000423641
0.00770109
-0.00041521
0.00769157
0.00101211
0.00768552
0.000468312
0.00767122
0.00154888
0.00765856
0.00119864
0.0076414
0.0018366
0.00762682
0.00145698
0.00761134
0.00169675
0.00759959
0.00122955
0.00758875
0.00121596
0.00758012
0.000893882
0.00757173
0.00083744
0.00756364
0.000676241
0.00755513
0.0006087
0.0075458
0.000536471
0.00753625
0.000394805
0.0075262
0.000269921
0.0075171
-3.5162e-05
0.00750845
-0.000297362
0.00750208
-0.000795557
0.00749759
-0.00126815
0.00749711
-0.00200803
0.00750075
-0.00276165
0.00751046
-0.00375372
0.0075281
-0.00490009
0.00755407
-0.00616119
0.00759394
-0.00776212
0.00764454
-0.00927297
0.00771521
-0.0111939
0.00779899
-0.0129452
0.0079009
-0.01468
-0.0169466
0.00749045
0.0123724
0.00747383
0.00112955
0.00750759
-0.00718731
0.00755433
-0.00906411
0.00759408
-0.00779268
0.00762544
-0.00631934
0.00765191
-0.0053697
0.00767465
-0.00462098
0.00769422
-0.00399263
0.00771088
-0.00341581
0.00772495
-0.00292251
0.00773674
-0.0024806
0.00774647
-0.00210113
0.00775441
-0.00176264
0.00776072
-0.00147286
0.0077656
-0.00121299
0.00776912
-0.000981621
0.00777152
-0.000785997
0.0077729
-0.000614756
0.00777343
-0.000470461
0.00777323
-0.000351481
0.00777243
-0.000248234
0.00777108
-0.000158739
0.00776943
-0.000103897
0.00776739
-4.08804e-05
0.00776539
-3.53469e-05
0.00776293
2.96304e-05
0.00776113
-5.25836e-05
0.00775829
7.83799e-05
0.0077572
-0.000164368
0.0077542
7.58861e-05
0.00775412
-0.000352305
0.00775127
-6.40121e-06
0.00775276
-0.000654544
0.00775056
-0.000207232
0.00775482
-0.00115662
0.00775421
-0.000561714
0.00776394
-0.00201224
0.00776815
-0.00117626
0.00778774
-0.00323863
0.00779961
-0.00195039
0.00783105
-0.00441595
0.00784939
-0.00221422
0.00788635
-0.00453416
0.00789708
-0.000686773
0.00791659
-0.00217162
0.00789534
0.00344844
0.00789139
0.00183138
0.00785826
0.00719013
0.00783219
0.00845689
0.00777346
0.015423
0.00762389
0.0319817
0.00736672
0.0508324
0.00737716
-3.16789e-05
0.00754901
-0.0342569
0.00763553
-0.0189959
0.00765242
-0.00720893
0.00766856
-0.00499683
0.00766667
-0.000938686
0.0076765
-0.00219527
0.00767284
0.000181015
0.00768327
-0.00173781
0.00768255
2.306e-05
0.00769388
-0.00168556
0.00769389
-1.83019e-06
0.00770263
-0.00126573
0.00769894
0.000427326
0.00770007
-0.000416336
0.00769055
0.00102162
0.00768451
0.00047436
0.00767019
0.00156319
0.00765752
0.00121132
0.00764033
0.00185379
0.00762572
0.00147159
0.00761021
0.00171226
0.00759845
0.00124131
0.00758762
0.00122679
0.00757902
0.00090249
0.00757064
0.000845822
0.00756256
0.000684323
0.00755406
0.000617206
0.0075447
0.000545832
0.00753511
0.000404391
0.00752501
0.000280027
0.00751585
-2.59986e-05
0.00750714
-0.000288642
0.0075007
-0.000789114
0.00749612
-0.00126356
0.00749555
-0.00200746
0.00749907
-0.00276517
0.00750868
-0.00376333
0.0075262
-0.00491761
0.00755206
-0.00618705
0.00759185
-0.00780191
0.00764238
-0.00932351
0.00771311
-0.0112646
0.00779696
-0.0130291
0.00789905
-0.014782
-0.0170646
0.00749041
0.0124577
0.00747359
0.00114638
0.00750704
-0.00722076
0.0075535
-0.00911057
0.007593
-0.00783218
0.00762414
-0.00635048
0.00765042
-0.00539598
0.007673
-0.00464356
0.00769244
-0.00401207
0.00770898
-0.00343234
0.00772295
-0.00293649
0.00773465
-0.00249231
0.00774431
-0.00211079
0.00775218
-0.00177051
0.00775844
-0.00147911
0.00776327
-0.00121782
0.00776675
-0.000985102
0.00776911
-0.00078836
0.00777045
-0.000616096
0.00777094
-0.000470952
0.00777071
-0.000351255
0.00776987
-0.000247396
0.00776849
-0.000157361
0.00776681
-0.000102217
0.00776474
-3.88147e-05
0.00776271
-3.3324e-05
0.00776022
3.21195e-05
0.00775839
-5.07531e-05
0.00775553
8.12419e-05
0.0077544
-0.000163243
0.00775137
7.89145e-05
0.00775125
-0.00035219
0.00774836
-3.51192e-06
0.0077498
-0.000655992
0.00774754
-0.00020497
0.00775174
-0.00116083
0.00775104
-0.000561025
0.00776069
-0.00202189
0.0077648
-0.00118037
0.00778434
-0.00325817
0.00779617
-0.00196222
0.00782764
-0.00444741
0.00784603
-0.00223262
0.00788313
-0.00457126
0.00789394
-0.000697582
0.00791351
-0.0021912
0.00789217
0.00346978
0.00788824
0.0018353
0.00785511
0.00722326
0.00782964
0.00848236
0.00777141
0.0154812
0.00762308
0.0321301
0.00736828
0.0510872
0.00737864
-4.20265e-05
0.00754896
-0.0344273
0.00763459
-0.0190815
0.00765097
-0.00722531
0.00766716
-0.005013
0.0076652
-0.000936728
0.00767505
-0.0022051
0.00767142
0.00018465
0.00768194
-0.00174832
0.00768128
2.3724e-05
0.00769268
-0.00169695
0.00769275
-1.89163e-06
0.00770155
-0.00127453
0.0076979
0.00043098
0.00769906
-0.000417495
0.00768955
0.00103113
0.00768351
0.000480399
0.00766917
0.00157752
0.00765648
0.00122401
0.00763926
0.00187102
0.00762462
0.00148623
0.0076091
0.00172779
0.00759733
0.00125308
0.00758651
0.00123761
0.00757792
0.000911076
0.00756956
0.000854186
0.00756149
0.000692392
0.00755299
0.000625717
0.00754361
0.000555214
0.00753399
0.000414015
0.00752383
0.000290182
0.00751462
-1.6777e-05
0.00750583
-0.000279852
0.00749932
-0.000782597
0.00749465
-0.00125889
0.00749398
-0.00200679
0.00749739
-0.00276858
0.0075069
-0.00377283
0.0075243
-0.00493501
0.00755005
-0.0062128
0.00758975
-0.00784161