/*--------------------------------*- C++ -*----------------------------------*\
| =========                 |                                                 |
| \\      /  F ield         | OpenFOAM: The Open Source CFD Toolbox           |
|  \\    /   O peration     | Version:  2412                                  |
|   \\  /    A nd           | Website:  www.openfoam.com                      |
|    \\/     M anipulation  |                                                 |
\*---------------------------------------------------------------------------*/
FoamFile
{
    version     2.0;
    format      ascii;
    arch        "LSB;label=32;scalar=64";
    class       volVectorField;
    location    "0.1";
    object      U;
}
// * * * * * * * * * * * * * * * * * * * * * * * * * * * * * * * * * * * * * //

dimensions      [0 1 -1 0 0 0 0];

internalField   nonuniform List<vector> 
12960
(
(99.923 -1.88702 0)
(100.665 -8.91 -5.49216e-17)
(102.459 -14.2419 -1.13688e-16)
(104.704 -15.648 0)
(106.98 -15.123 -5.49444e-17)
(109.173 -14.4715 0)
(111.353 -14.138 0)
(113.549 -13.9314 0)
(115.768 -13.8065 5.0604e-17)
(118.023 -13.7167 4.97249e-17)
(120.312 -13.687 0)
(122.655 -13.6938 0)
(125.049 -13.7484 0)
(127.511 -13.8363 0)
(130.041 -13.9626 4.51332e-17)
(132.653 -14.1198 -8.83422e-17)
(135.352 -14.3097 0)
(138.149 -14.5291 -4.22116e-17)
(141.051 -14.7783 0)
(144.07 -15.0568 4.01956e-17)
(147.218 -15.3646 3.91701e-17)
(150.5 -15.7025 -3.81245e-17)
(153.949 -16.0704 3.70913e-17)
(157.525 -16.4698 0)
(161.371 -16.9004 0)
(165.236 -17.3688 0)
(169.639 -17.8602 0)
(173.766 -18.4202 3.14089e-17)
(178.883 -18.956 0)
(183.344 -19.6531 -5.82781e-17)
(189.225 -20.2126 2.44755e-22)
(194.21 -21.0957 -2.68852e-17)
(200.966 -21.695 6.71997e-22)
(206.51 -22.7819 -4.87404e-17)
(214.56 -23.4708 -2.39481e-17)
(220.551 -24.8025 0)
(230.421 -25.6137 0)
(236.926 -27.3137 1.89765e-17)
(249.172 -28.2511 2.45721e-22)
(256.469 -30.4272 3.25073e-17)
(271.846 -31.4443 0)
(280.221 -33.994 -1.29757e-21)
(299.686 -34.9183 9.16884e-22)
(309.324 -37.5502 -1.05875e-17)
(333.817 -38.0534 -2.57269e-17)
(344.468 -40.3253 7.45251e-18)
(374.499 -40.4186 0)
(385.861 -42.8266 0)
(423.602 -43.932 -8.24472e-18)
(438.242 -44.9111 1.97082e-19)
(484.666 -46.0134 -5.82478e-18)
(504.84 -38.1216 0)
(550.151 -35.7238 0)
(572.923 4.27819 4.69567e-19)
(544.831 16.7602 2.6313e-18)
(535.419 27.1389 6.0674e-18)
(497.27 31.377 -2.45123e-18)
(483.292 31.7816 0)
(450.203 31.9026 0)
(438.102 30.2945 -1.88392e-18)
(410.911 29.7674 3.92413e-18)
(400.258 27.8595 0)
(378.14 27.3252 0)
(368.546 25.6093 2.02483e-18)
(350.47 25.3177 0)
(341.498 23.9095 -8.29507e-22)
(326.493 23.8384 0)
(317.841 22.6983 0)
(305.098 22.6308 -7.52761e-18)
(296.769 21.7033 0)
(285.851 21.5619 2.45706e-22)
(277.853 20.7696 -8.0262e-18)
(268.424 20.4725 0)
(260.899 19.699 -9.33738e-18)
(252.75 19.2614 1.0242e-17)
(245.921 18.4869 0)
(238.837 17.9737 1.13106e-17)
(232.737 17.332 -1.15296e-17)
(226.498 16.85 2.46598e-17)
(220.94 16.347 1.26305e-17)
(215.365 15.8978 0)
(210.247 15.4758 -1.37139e-17)
(205.164 15.0154 0)
(200.478 14.5922 1.47513e-17)
(195.805 14.0627 0)
(191.578 13.59 -1.57666e-17)
(187.292 12.9663 -1.62199e-17)
(183.551 12.4063 -1.67924e-17)
(179.657 11.6705 0)
(176.437 10.9754 0)
(172.987 10.121 1.82761e-17)
(170.326 9.23635 0)
(167.425 8.2616 0)
(165.373 7.16463 -4.12666e-22)
(163.192 6.09071 -2.09317e-22)
(161.785 4.87587 2.10442e-17)
(160.472 3.728 -2.14649e-17)
(159.735 2.6667 2.20448e-17)
(159.131 1.25422 -2.25002e-17)
(99.9234 -1.9016 0)
(100.664 -8.97194 -5.49207e-17)
(102.452 -14.3388 5.68815e-17)
(104.694 -15.7548 0)
(106.967 -15.2266 -1.73383e-21)
(109.156 -14.5711 0)
(111.333 -14.2357 0)
(113.526 -14.0281 0)
(115.742 -13.9027 -5.06011e-17)
(117.995 -13.8125 -4.97219e-17)
(120.282 -13.7829 0)
(122.623 -13.7899 4.79292e-17)
(125.015 -13.8451 4.70118e-17)
(127.475 -13.9337 0)
(130.003 -14.061 -4.51307e-17)
(132.613 -14.2194 8.83399e-17)
(135.31 -14.4107 -4.31984e-17)
(138.105 -14.6316 8.442e-17)
(141.006 -14.8825 0)
(144.023 -15.163 -4.01959e-17)
(147.169 -15.473 -3.91704e-17)
(150.449 -15.8133 -3.81248e-17)
(153.896 -16.1838 -3.70896e-17)
(157.47 -16.5859 0)
(161.314 -17.0196 -3.49985e-17)
(165.177 -17.4912 3.37333e-17)
(169.577 -17.9861 0)
(173.702 -18.55 -3.14079e-17)
(178.816 -19.0894 0)
(183.275 -19.7915 2.9139e-17)
(189.152 -20.3546 2.5336e-22)
(194.134 -21.2441 5.37703e-17)
(200.886 -21.8471 6.80153e-22)
(206.426 -22.9416 2.43704e-17)
(214.472 -23.6348 0)
(220.458 -24.9758 -2.16779e-17)
(230.322 -25.7921 0)
(236.822 -27.5043 0)
(249.061 -28.4481 1.94894e-17)
(256.352 -30.6404 -1.62542e-17)
(271.722 -31.6651 1.71991e-17)
(280.09 -34.2344 1.3482e-17)
(299.553 -35.1666 9.17655e-22)
(309.186 -37.819 1.05869e-17)
(333.681 -38.3267 1.28641e-17)
(344.326 -40.6139 -7.45256e-18)
(374.355 -40.7072 0)
(385.7 -43.1348 -3.93296e-18)
(423.449 -44.2549 -8.24562e-18)
(438.08 -45.2477 1.98387e-19)
(484.563 -46.376 5.82249e-18)
(504.767 -38.4402 0)
(550.247 -36.0552 3.68924e-18)
(573.174 4.30435 6.64107e-22)
(544.912 16.9262 0)
(535.446 27.3692 -6.06293e-18)
(497.22 31.6273 2.45017e-18)
(483.23 32.0275 0)
(450.126 32.1411 -3.13445e-18)
(438.028 30.5196 3.76715e-18)
(410.833 29.9864 0)
(400.185 28.0644 0)
(378.068 27.5253 0)
(368.479 25.7969 -2.0249e-18)
(350.405 25.5029 -5.64658e-18)
(341.438 24.0845 3.80062e-18)
(326.435 24.0134 0)
(317.786 22.8656 -5.34568e-18)
(305.044 22.7981 1.50553e-17)
(296.716 21.864 0)
(285.8 21.7221 8.47331e-18)
(277.802 20.9244 0)
(268.374 20.6251 0)
(260.849 19.8459 9.33736e-18)
(252.701 19.4046 0)
(245.872 18.6241 -1.04788e-17)
(238.791 18.1066 0)
(232.692 17.4604 2.30599e-17)
(226.455 16.975 -1.23298e-17)
(220.898 16.4689 -1.2631e-17)
(215.324 16.017 1.32718e-17)
(210.207 15.5927 1.37137e-17)
(205.125 15.1296 0)
(200.438 14.7041 -1.47509e-17)
(195.765 14.1714 1.52172e-17)
(191.538 13.696 1.57663e-17)
(187.251 13.0684 3.24387e-17)
(183.509 12.505 0)
(179.615 11.7644 0)
(176.393 11.0647 1.78294e-17)
(172.942 10.2044 -5.0321e-22)
(170.28 9.31305 0)
(167.377 8.3312 1.93299e-17)
(165.325 7.22422 -1.99768e-17)
(163.143 6.14213 -2.0007e-22)
(161.737 4.91418 2.10423e-17)
(160.427 3.75744 -2.14639e-17)
(159.691 2.6845 2.20422e-17)
(159.093 1.26167 0)
(99.9236 -1.91605 0)
(100.662 -9.03347 5.49168e-17)
(102.446 -14.4353 0)
(104.684 -15.8614 0)
(106.953 -15.33 5.49856e-17)
(109.139 -14.6704 0)
(111.313 -14.3333 0)
(113.503 -14.1247 0)
(115.716 -13.9987 0)
(117.966 -13.9083 0)
(120.252 -13.8787 4.88338e-17)
(122.591 -13.886 -4.79263e-17)
(124.981 -13.9417 -4.7009e-17)
(127.438 -14.031 4.60762e-17)
(129.965 -14.1593 0)
(132.574 -14.3189 -4.41681e-17)
(135.269 -14.5116 4.3196e-17)
(138.062 -14.7341 -8.44178e-17)
(140.961 -14.9868 0)
(143.976 -15.2692 8.03887e-17)
(147.12 -15.5814 7.83379e-17)
(150.398 -15.924 3.8123e-17)
(153.844 -16.2971 0)
(157.416 -16.702 -3.59807e-17)
(161.258 -17.1387 6.99947e-17)
(165.118 -17.6136 1.04284e-21)
(169.517 -18.1119 0)
(173.638 -18.6797 -3.14093e-17)
(178.75 -19.2228 0)
(183.206 -19.9299 0)
(189.08 -20.4966 -2.83992e-17)
(194.06 -21.3923 7.60448e-22)
(200.807 -21.9992 -2.6086e-17)
(206.344 -23.1012 2.43713e-17)
(214.385 -23.7988 0)
(220.366 -25.1491 2.1678e-17)
(230.226 -25.9704 0)
(236.718 -27.6948 -1.89811e-17)
(248.951 -28.6451 0)
(256.235 -30.8534 0)
(271.6 -31.8858 -3.43985e-17)
(279.961 -34.4748 0)
(299.42 -35.4149 -1.49674e-17)
(309.05 -38.0879 1.059e-17)
(333.546 -38.6 -1.28676e-17)
(344.185 -40.9024 0)
(374.212 -40.9957 0)
(385.539 -43.4427 7.86749e-18)
(423.297 -44.5777 8.24521e-18)
(437.915 -45.5842 -1.98328e-19)
(484.459 -46.739 -5.82058e-18)
(504.686 -38.7589 0)
(550.336 -36.3874 -3.68538e-18)
(573.423 4.33047 -9.40127e-19)
(544.986 17.0929 0)
(535.469 27.5998 0)
(497.165 31.8776 0)
(483.167 32.2734 -3.91611e-18)
(450.048 32.3795 3.13422e-18)
(437.954 30.7448 -1.88326e-18)
(410.755 30.2053 0)
(400.114 28.2692 1.15783e-19)
(377.997 27.7254 0)
(368.414 25.9845 -2.02608e-18)
(350.342 25.6881 5.64682e-18)
(341.379 24.2596 3.80242e-18)
(326.378 24.1885 -6.56267e-18)
(317.732 23.0331 5.3458e-18)
(304.992 22.9655 -7.02171e-23)
(296.665 22.0249 0)
(285.751 21.8824 8.47284e-18)
(277.753 21.0793 0)
(268.326 20.7779 0)
(260.8 19.9929 9.33776e-18)
(252.654 19.5479 1.02422e-17)
(245.825 18.7614 2.0958e-17)
(238.746 18.2397 -1.13099e-17)
(232.648 17.5888 5.14775e-22)
(226.413 17.1001 0)
(220.858 16.5908 2.52622e-17)
(215.285 16.1362 -2.65432e-17)
(210.168 15.7096 4.97244e-23)
(205.087 15.2438 1.42311e-17)
(200.4 14.8161 1.47502e-17)
(195.727 14.2802 -2.09809e-22)
(191.499 13.8021 0)
(187.212 13.1706 -1.62189e-17)
(183.469 12.6038 0)
(179.573 11.8584 0)
(176.351 11.1541 -5.14493e-22)
(172.897 10.2879 -1.82745e-17)
(170.235 9.38984 1.88904e-17)
(167.33 8.40089 -4.12644e-22)
(165.278 7.28385 0)
(163.095 6.1936 -2.04032e-17)
(161.689 4.95246 -3.105e-22)
(160.382 3.78683 2.14624e-17)
(159.648 2.70222 -2.20407e-17)
(159.056 1.26905 0)
(99.9238 -1.93058 0)
(100.66 -9.09513 0)
(102.439 -14.5318 5.69608e-17)
(104.673 -15.9678 0)
(106.939 -15.4332 5.5009e-17)
(109.122 -14.7696 0)
(111.293 -14.4306 0)
(113.48 -14.2211 5.14796e-17)
(115.69 -14.0946 0)
(117.938 -14.0039 -4.97201e-17)
(120.221 -13.9743 1.4138e-21)
(122.558 -13.9819 4.79261e-17)
(124.946 -14.0381 4.70089e-17)
(127.402 -14.1283 -4.60735e-17)
(129.927 -14.2575 0)
(132.534 -14.4183 -4.41681e-17)
(135.227 -14.6124 4.31961e-17)
(138.019 -14.8365 8.44156e-17)
(140.916 -15.0909 0)
(143.93 -15.3754 -4.01928e-17)
(147.072 -15.6897 -7.83362e-17)
(150.348 -16.0346 0)
(153.792 -16.4103 0)
(157.362 -16.818 3.59791e-17)
(161.202 -17.2577 -6.99935e-17)
(165.06 -17.7359 -6.74642e-17)
(169.456 -18.2376 0)
(173.575 -18.8094 3.14083e-17)
(178.685 -19.3561 0)
(183.138 -20.0682 0)
(189.008 -20.6385 0)
(193.986 -21.5406 -2.68854e-17)
(200.729 -22.1512 0)
(206.262 -23.2609 -2.43713e-17)
(214.299 -23.9626 0)
(220.275 -25.3223 -2.16805e-17)
(230.13 -26.1486 0)
(236.616 -27.8852 3.79644e-17)
(248.842 -28.842 -1.94891e-17)
(256.119 -31.0663 -1.62578e-17)
(271.478 -32.1064 3.43995e-17)
(279.833 -34.7151 0)
(299.289 -35.6631 -1.4969e-17)
(308.914 -38.3566 1.8282e-21)
(333.413 -38.8732 1.28678e-17)
(344.044 -41.1908 -7.4597e-18)
(374.07 -41.284 -1.06828e-17)
(385.378 -43.7504 -3.93465e-18)
(423.144 -44.9004 0)
(437.747 -45.9205 -1.99719e-19)
(484.355 -47.1022 -5.81902e-18)
(504.598 -39.0775 0)
(550.42 -36.7205 3.67798e-18)
(573.667 4.35675 -6.83538e-22)
(545.053 17.26 0)
(535.486 27.8306 0)
(497.103 32.1278 -2.44185e-18)
(483.101 32.5193 3.91602e-18)
(449.968 32.6179 0)
(437.879 30.9698 1.88212e-18)
(410.676 30.4242 3.92273e-18)
(400.043 28.4741 -1.15789e-19)
(377.927 27.9254 0)
(368.35 26.1721 -5.56872e-22)
(350.28 25.8733 0)
(341.322 24.4347 -3.8026e-18)
(326.323 24.3636 -1.50013e-22)
(317.681 23.2006 -5.34824e-18)
(304.942 23.133 -1.50556e-17)
(296.616 22.1858 -6.72241e-18)
(285.704 22.0428 -8.47296e-18)
(277.706 21.2343 8.02964e-18)
(268.28 20.9307 0)
(260.754 20.14 -1.86759e-17)
(252.609 19.6913 -1.02423e-17)
(245.78 18.8987 -1.04793e-17)
(238.702 18.3728 1.13101e-17)
(232.606 17.7173 -2.30624e-17)
(226.373 17.2252 -1.23291e-17)
(220.819 16.7128 -2.52628e-17)
(215.248 16.2554 2.65428e-17)
(210.131 15.8266 -2.74267e-17)
(205.05 15.3582 -8.36058e-23)
(200.363 14.9282 -2.94996e-17)
(195.69 14.389 -3.04327e-17)
(191.461 13.9082 0)
(187.173 13.2728 -1.62178e-17)
(183.429 12.7027 0)
(179.532 11.9525 0)
(176.309 11.2436 -1.78278e-17)
(172.854 10.3714 1.8273e-17)
(170.19 9.46666 -1.88896e-17)
(167.283 8.47058 -3.86553e-17)
(165.231 7.34347 0)
(163.047 6.24504 0)
(161.641 4.99064 -4.20788e-17)
(160.338 3.81613 2.14613e-17)
(159.605 2.71979 2.20383e-17)
(159.019 1.27633 0)
(99.924 -1.94502 5.41357e-17)
(100.659 -9.15654 -5.4916e-17)
(102.432 -14.628 -1.13999e-16)
(104.663 -16.074 5.67025e-17)
(106.925 -15.5362 -5.50293e-17)
(109.105 -14.8686 0)
(111.273 -14.5278 -5.24161e-17)
(113.457 -14.3173 -5.1477e-17)
(115.665 -14.1904 0)
(117.91 -14.0994 -1.43358e-21)
(120.191 -14.0698 -4.88293e-17)
(122.526 -14.0777 1.38522e-21)
(124.912 -14.1345 -4.70061e-17)
(127.366 -14.2254 0)
(129.889 -14.3557 0)
(132.495 -14.5177 4.41656e-17)
(135.186 -14.7131 -4.31937e-17)
(137.976 -14.9388 -4.22061e-17)
(140.872 -15.195 0)
(143.884 -15.4814 4.01931e-17)
(147.024 -15.7979 3.91667e-17)
(150.299 -16.1452 0)
(153.74 -16.5235 0)
(157.308 -16.934 0)
(161.146 -17.3767 3.49957e-17)
(165.002 -17.8582 3.37313e-17)
(169.396 -18.3633 0)
(173.513 -18.939 0)
(178.62 -19.4894 0)
(183.071 -20.2064 2.9142e-17)
(188.938 -20.7803 0)
(193.913 -21.6887 0)
(200.652 -22.3031 0)
(206.182 -23.4204 0)
(214.214 -24.1264 2.39502e-17)
(220.186 -25.4954 -1.13618e-21)
(230.034 -26.3267 2.17684e-17)
(236.514 -28.0754 -1.89834e-17)
(248.735 -29.0387 1.94896e-17)
(256.004 -31.2791 1.62582e-17)
(271.357 -32.3269 -1.72002e-17)
(279.705 -34.9553 -1.34867e-17)
(299.159 -35.9112 2.9939e-17)
(308.779 -38.6254 -1.05914e-17)
(333.28 -39.1465 -1.28718e-17)
(343.903 -41.4791 7.4602e-18)
(373.929 -41.5721 1.0684e-17)
(385.216 -44.0579 0)
(422.991 -45.2228 0)
(437.576 -46.2566 1.99675e-19)
(484.25 -47.4656 5.81785e-18)
(504.502 -39.3961 0)
(550.498 -37.0544 -3.67521e-18)
(573.907 4.38305 4.71157e-19)
(545.113 17.4276 0)
(535.499 28.0616 0)
(497.035 32.3779 2.44154e-18)
(483.034 32.765 3.91579e-18)
(449.886 32.8561 -3.13081e-18)
(437.804 31.1948 -3.76374e-18)
(410.598 30.6429 -3.92296e-18)
(399.972 28.6788 1.16755e-19)
(377.857 28.1254 0)
(368.288 26.3597 2.02692e-18)
(350.219 26.0586 0)
(341.267 24.6099 -3.80453e-18)
(326.27 24.5388 6.56356e-18)
(317.631 23.3682 5.34847e-18)
(304.893 23.3005 7.52806e-18)
(296.57 22.3468 1.34465e-17)
(285.659 22.2032 8.47267e-18)
(277.661 21.3894 8.45336e-22)
(268.236 21.0836 0)
(260.709 20.2872 1.86765e-17)
(252.565 19.8348 0)
(245.737 19.0361 1.048e-17)
(238.66 18.5059 0)
(232.565 17.8458 -5.24234e-22)
(226.335 17.3503 1.23292e-17)
(220.782 16.8349 2.52634e-17)
(215.212 16.3748 -2.65426e-17)
(210.096 15.9437 1.37132e-17)
(205.015 15.4726 -1.42306e-17)
(200.327 15.0403 1.47495e-17)
(195.654 14.4979 3.04319e-17)
(191.424 14.0144 0)
(187.135 13.3752 1.62176e-17)
(183.391 12.8016 0)
(179.492 12.0466 0)
(176.268 11.3331 0)
(172.811 10.4551 -3.65445e-17)
(170.147 9.54356 0)
(167.237 8.54034 3.86528e-17)
(165.185 7.40314 0)
(163 6.29651 0)
(161.594 5.02879 2.1038e-17)
(160.294 3.84537 -2.14598e-17)
(159.562 2.73728 -2.20368e-17)
(158.983 1.28354 0)
(99.9242 -1.9594 -5.41167e-17)
(100.657 -9.21778 1.0983e-16)
(102.426 -14.7241 5.70393e-17)
(104.653 -16.1801 -1.1349e-16)
(106.912 -15.6391 0)
(109.088 -14.9674 0)
(111.252 -14.6249 -1.57608e-21)
(113.434 -14.4134 0)
(115.639 -14.286 -5.05967e-17)
(117.882 -14.1948 -1.44463e-21)
(120.161 -14.1652 0)
(122.494 -14.1734 -4.79218e-17)
(124.878 -14.2308 0)
(127.331 -14.3225 0)
(129.852 -14.4537 0)
(132.455 -14.6169 0)
(135.145 -14.8137 0)
(137.934 -15.041 0)
(140.827 -15.299 -4.12066e-17)
(143.838 -15.5874 1.16023e-21)
(146.977 -15.906 0)
(150.249 -16.2557 0)
(153.689 -16.6366 -3.70878e-17)
(157.255 -17.0499 0)
(161.091 -17.4956 0)
(164.945 -17.9804 0)
(169.337 -18.4889 0)
(173.451 -19.0686 3.14102e-17)
(178.555 -19.6225 3.07431e-17)
(183.005 -20.3445 -2.91414e-17)
(188.867 -20.9221 -2.83987e-17)
(193.84 -21.8368 0)
(200.576 -22.4549 0)
(206.102 -23.5798 0)
(214.13 -24.2901 -2.39505e-17)
(220.097 -25.6684 -1.14367e-21)
(229.94 -26.5046 -2.1769e-17)
(236.414 -28.2656 -1.89868e-17)
(248.628 -29.2353 1.94898e-17)
(255.89 -31.4918 -1.6261e-17)
(271.237 -32.5472 1.72014e-17)
(279.578 -35.1954 1.34869e-17)
(299.03 -36.1593 -1.49701e-17)
(308.645 -38.8941 0)
(333.149 -39.4196 1.28725e-17)
(343.763 -41.7672 -7.46541e-18)
(373.789 -41.8601 -1.06888e-17)
(385.054 -44.3651 0)
(422.838 -45.545 0)
(437.403 -46.5926 0)
(484.144 -47.8292 0)
(504.398 -39.7145 0)
(550.57 -37.3892 0)
(574.144 4.4094 -4.72725e-19)
(545.166 17.5957 2.60503e-18)
(535.506 28.2929 6.06846e-18)
(496.96 32.6278 2.43673e-18)
(482.965 33.0106 -3.91606e-18)
(449.803 33.0942 3.13078e-18)
(437.729 31.4197 1.88166e-18)
(410.519 30.8615 0)
(399.903 28.8836 -1.16765e-19)
(377.789 28.3254 0)
(368.226 26.5473 0)
(350.16 26.2439 0)
(341.213 24.7851 3.8048e-18)
(326.219 24.714 0)
(317.583 23.5359 5.35106e-18)
(304.846 23.4682 7.52828e-18)
(296.524 22.5078 1.21161e-21)
(285.615 22.3638 -8.47295e-18)
(277.617 21.5445 -8.03086e-18)
(268.193 21.2367 9.33102e-18)
(260.666 20.4344 -9.33853e-18)
(252.523 19.9783 0)
(245.695 19.1736 -1.04803e-17)
(238.62 18.6391 0)
(232.526 17.9744 1.15324e-17)
(226.297 17.4756 0)
(220.746 16.957 3.17951e-22)
(215.177 16.4941 1.32712e-17)
(210.061 16.0608 0)
(204.981 15.5871 0)
(200.292 15.1525 0)
(195.618 14.6069 -1.52157e-17)
(191.388 14.1207 0)
(187.099 13.4775 0)
(183.353 12.9007 0)
(179.453 12.1408 -1.72304e-17)
(176.227 11.4228 0)
(172.769 10.5387 1.82714e-17)
(170.104 9.62052 0)
(167.192 8.61016 -1.93253e-17)
(165.139 7.46286 0)
(162.953 6.348 0)
(161.548 5.0669 0)
(160.251 3.87455 0)
(159.52 2.75467 0)
(158.947 1.29067 0)
(99.9243 -1.97375 0)
(100.655 -9.27886 -5.49143e-17)
(102.42 -14.8199 0)
(104.643 -16.286 5.67883e-17)
(106.898 -15.7419 0)
(109.071 -15.0661 0)
(111.232 -14.7218 5.24162e-17)
(113.411 -14.5094 5.14764e-17)
(115.613 -14.3815 5.05938e-17)
(117.854 -14.29 9.94296e-17)
(120.131 -14.2606 4.88278e-17)
(122.462 -14.2691 0)
(124.844 -14.3269 0)
(127.295 -14.4195 4.60708e-17)
(129.814 -14.5517 0)
(132.416 -14.7161 0)
(135.104 -14.9143 0)
(137.891 -15.1432 0)
(140.783 -15.4029 4.12044e-17)
(143.792 -15.6933 -8.03817e-17)
(146.929 -16.0141 0)
(150.2 -16.3662 0)
(153.638 -16.7496 7.41735e-17)
(157.202 -17.1657 0)
(161.036 -17.6144 0)
(164.888 -18.1025 -3.37321e-17)
(169.278 -18.6145 0)
(173.39 -19.1981 -3.14093e-17)
(178.491 -19.7556 -3.07423e-17)
(182.938 -20.4826 0)
(188.798 -21.0638 2.83983e-17)
(193.768 -21.9847 -2.68878e-17)
(200.5 -22.6067 0)
(206.022 -23.7392 0)
(214.047 -24.4537 -2.39516e-17)
(220.008 -25.8413 2.16841e-17)
(229.847 -26.6825 0)
(236.314 -28.4556 1.89875e-17)
(248.522 -29.4318 -1.94905e-17)
(255.777 -31.7043 3.25244e-17)
(271.119 -32.7674 3.31074e-22)
(279.452 -35.4355 -1.34898e-17)
(298.902 -36.4073 0)
(308.512 -39.1628 0)
(333.019 -39.6928 0)
(343.624 -42.0552 7.46622e-18)
(373.649 -42.1478 1.06905e-17)
(384.892 -44.672 0)
(422.685 -45.8671 0)
(437.228 -46.9283 2.01894e-19)
(484.037 -48.1931 0)
(504.287 -40.0329 0)
(550.636 -37.7248 0)
(574.376 4.4358 4.72956e-19)
(545.212 17.7644 -2.60513e-18)
(535.509 28.5244 -6.0669e-18)
(496.88 32.8777 -4.87125e-18)
(482.894 33.2561 0)
(449.719 33.3321 0)
(437.653 31.6445 0)
(410.439 31.0801 0)
(399.833 29.0882 -1.17751e-19)
(377.721 28.5253 0)
(368.166 26.7348 -2.02902e-18)
(350.101 26.4291 0)
(341.161 24.9603 0)
(326.168 24.8892 0)
(317.536 23.7036 -5.3514e-18)
(304.801 23.6359 -1.50574e-17)
(296.48 22.669 -6.72569e-18)
(285.572 22.5244 0)
(277.575 21.6998 8.03284e-18)
(268.151 21.3898 -9.33127e-18)
(260.624 20.5817 0)
(252.482 20.1219 0)
(245.654 19.3111 0)
(238.58 18.7724 1.13098e-17)
(232.488 18.103 -1.15337e-17)
(226.261 17.6008 1.23289e-17)
(220.71 17.0791 -2.5265e-17)
(215.143 16.6136 -1.32711e-17)
(210.027 16.178 0)
(204.947 15.7016 0)
(200.258 15.2647 0)
(195.584 14.716 0)
(191.353 14.2271 1.5763e-17)
(187.063 13.58 1.6216e-17)
(183.316 12.9998 0)
(179.415 12.2351 4.44135e-22)
(176.188 11.5125 0)
(172.727 10.6225 0)
(170.061 9.69755 0)
(167.147 8.68003 0)
(165.094 7.5226 0)
(162.907 6.3995 0)
(161.502 5.10495 0)
(160.209 3.90367 0)
(159.479 2.77194 0)
(158.912 1.29771 0)
(99.9245 -1.98807 0)
(100.654 -9.3398 5.49172e-17)
(102.414 -14.9156 -5.71242e-17)
(104.633 -16.3917 5.68346e-17)
(106.884 -15.8444 0)
(109.054 -15.1646 0)
(111.212 -14.8185 5.24187e-17)
(113.388 -14.6053 1.52763e-21)
(115.588 -14.4769 0)
(117.827 -14.3852 -4.97126e-17)
(120.101 -14.3558 -4.88249e-17)
(122.43 -14.3646 4.79204e-17)
(124.81 -14.423 0)
(127.259 -14.5164 -4.60682e-17)
(129.777 -14.6496 0)
(132.377 -14.8152 0)
(135.064 -15.0148 -4.31918e-17)
(137.849 -15.2453 4.22044e-17)
(140.739 -15.5067 4.12048e-17)
(143.747 -15.7991 8.038e-17)
(146.882 -16.122 0)
(150.151 -16.4765 -3.81205e-17)
(153.587 -16.8625 1.03963e-21)
(157.149 -17.2814 0)
(160.981 -17.7332 0)
(164.831 -18.2246 -1.08014e-21)
(169.219 -18.7399 0)
(173.329 -19.3275 0)
(178.428 -19.8886 3.07418e-17)
(182.873 -20.6206 2.91444e-17)
(188.729 -21.2054 -2.83984e-17)
(193.697 -22.1326 -7.89175e-22)
(200.425 -22.7583 -2.60901e-17)
(205.944 -23.8984 0)
(213.964 -24.6171 -3.33349e-22)
(219.921 -26.0141 2.1687e-17)
(229.754 -26.8602 2.17696e-17)
(236.215 -28.6455 0)
(248.417 -29.6281 1.94909e-17)
(255.664 -31.9167 -1.62635e-17)
(271 -32.9875 -1.7203e-17)
(279.327 -35.6753 1.34902e-17)
(298.775 -36.6553 1.49736e-17)
(308.379 -39.4314 0)
(332.889 -39.9659 0)
(343.484 -42.3431 7.4718e-18)
(373.51 -42.4353 -1.06957e-17)
(384.729 -44.9786 -3.94491e-18)
(422.531 -46.1888 0)
(437.05 -47.2639 -4.04536e-19)
(483.929 -48.557 5.81644e-18)
(504.169 -40.3512 0)
(550.696 -38.0612 -3.66048e-18)
(574.603 4.46226 -4.74618e-19)
(545.251 17.9337 -2.59836e-18)
(535.506 28.7562 0)
(496.794 33.1274 2.43467e-18)
(482.821 33.5014 0)
(449.633 33.57 3.12758e-18)
(437.577 31.8692 0)
(410.359 31.2985 3.92244e-18)
(399.764 29.2928 1.17764e-19)
(377.653 28.7252 0)
(368.107 26.9224 2.02924e-18)
(350.044 26.6144 0)
(341.11 25.1356 0)
(326.119 25.0645 0)
(317.49 23.8713 -5.3541e-18)
(304.757 23.8036 7.52913e-18)
(296.438 22.8301 -6.72852e-18)
(285.531 22.6851 0)
(277.534 21.8551 -1.60671e-17)
(268.111 21.5429 0)
(260.584 20.7291 -9.33964e-18)
(252.442 20.2655 0)
(245.615 19.4486 -1.04817e-17)
(238.542 18.9057 -1.13103e-17)
(232.451 18.2316 2.30686e-17)
(226.226 17.7261 -1.23292e-17)
(220.676 17.2012 2.52659e-17)
(215.11 16.733 1.32712e-17)
(209.995 16.2952 0)
(204.915 15.8162 0)
(200.225 15.377 0)
(195.551 14.8251 -1.52148e-17)
(191.318 14.3335 -1.57628e-17)
(187.028 13.6825 -1.62157e-17)
(183.279 13.0989 -1.6786e-17)
(179.377 12.3294 4.47671e-22)
(176.149 11.6022 -1.7823e-17)
(172.686 10.7062 0)
(170.019 9.77465 0)
(167.103 8.74994 0)
(165.049 7.58237 0)
(162.861 6.45101 -2.03958e-17)
(161.456 5.14294 2.10329e-17)
(160.166 3.93272 0)
(159.438 2.78909 0)
(158.878 1.30466 2.24959e-17)
(99.9247 -2.00235 0)
(100.652 -9.4006 -5.49169e-17)
(102.408 -15.0111 5.71647e-17)
(104.623 -16.4972 -1.13757e-16)
(106.871 -15.9468 0)
(109.037 -15.263 5.35719e-17)
(111.192 -14.9152 1.61163e-21)
(113.365 -14.701 -1.02948e-16)
(115.562 -14.5722 -5.05926e-17)
(117.799 -14.4802 0)
(120.07 -14.4509 -4.8825e-17)
(122.398 -14.46 -9.58366e-17)
(124.776 -14.519 -4.70022e-17)
(127.223 -14.6132 0)
(129.739 -14.7474 0)
(132.338 -14.9142 0)
(135.023 -15.1152 4.31895e-17)
(137.807 -15.3473 -8.44056e-17)
(140.696 -15.6105 -4.12027e-17)
(143.701 -15.9048 -8.03785e-17)
(146.835 -16.2299 3.91649e-17)
(150.102 -16.5868 -1.10454e-21)
(153.536 -16.9753 1.04713e-21)
(157.097 -17.3971 0)
(160.927 -17.8518 3.49947e-17)
(164.775 -18.3465 3.37308e-17)
(169.16 -18.8652 -3.29091e-17)
(173.269 -19.4569 0)
(178.364 -20.0216 -3.07411e-17)
(182.807 -20.7586 -2.91438e-17)
(188.66 -21.3469 2.8398e-17)
(193.626 -22.2804 2.68882e-17)
(200.35 -22.9099 2.60902e-17)
(205.865 -24.0576 2.43755e-17)
(213.881 -24.7805 2.39528e-17)
(219.834 -26.1868 1.16973e-21)
(229.661 -27.0377 -3.14458e-22)
(236.117 -28.8353 1.89933e-17)
(248.312 -29.8242 -1.94918e-17)
(255.551 -32.1289 -1.62666e-17)
(270.883 -33.2074 0)
(279.202 -35.9151 -1.34934e-17)
(298.648 -36.9031 -2.99493e-17)
(308.246 -39.6999 0)
(332.76 -40.2388 1.2883e-17)
(343.345 -42.6308 -7.47285e-18)
(373.371 -42.7226 1.06977e-17)
(384.566 -45.2849 3.9454e-18)
(422.378 -46.5103 0)
(436.869 -47.5993 -8.05682e-22)
(483.82 -48.9211 6.32464e-23)
(504.045 -40.6693 0)
(550.749 -38.3985 3.65852e-18)
(574.827 4.48878 4.74843e-19)
(545.285 18.1035 3.56271e-21)
(535.5 28.9881 6.0746e-18)
(496.703 33.3771 -2.43019e-18)
(482.747 33.7465 3.91679e-18)
(449.545 33.8077 -3.1276e-18)
(437.5 32.0937 0)
(410.279 31.5168 -4.14046e-22)
(399.696 29.4973 0)
(377.586 28.925 0)
(368.048 27.1099 0)
(349.987 26.7996 0)
(341.06 25.3108 -3.80929e-18)
(326.071 25.2398 -6.56668e-18)
(317.446 24.0391 5.3545e-18)
(304.714 23.9714 0)
(296.397 22.9913 6.72893e-18)
(285.492 22.8459 0)
(277.494 22.0105 -8.71421e-22)
(268.072 21.6962 0)
(260.544 20.8766 9.3399e-18)
(252.403 20.4092 0)
(245.576 19.5862 2.09644e-17)
(238.505 19.039 0)
(232.415 18.3602 5.43924e-22)
(226.192 17.8514 1.23289e-17)
(220.643 17.3234 -1.26333e-17)
(215.078 16.8525 1.32711e-17)
(209.963 16.4125 1.37131e-17)
(204.883 15.9308 0)
(200.193 15.4894 0)
(195.518 14.9342 3.0429e-17)
(191.285 14.44 0)
(186.993 13.7851 0)
(183.243 13.1982 4.68779e-22)
(179.34 12.4238 4.51226e-22)
(176.11 11.6921 3.56442e-17)
(172.645 10.7901 1.82676e-17)
(169.978 9.85179 0)
(167.058 8.8199 0)
(165.004 7.64217 0)
(162.815 6.50253 2.03943e-17)
(161.411 5.18086 -2.63194e-22)
(160.124 3.9617 0)
(159.397 2.80611 0)
(158.844 1.3115 -2.24944e-17)
(99.9248 -2.01661 0)
(100.651 -9.46125 5.4921e-17)
(102.402 -15.1063 0)
(104.613 -16.6026 5.69231e-17)
(106.857 -16.049 -5.51432e-17)
(109.02 -15.3612 -1.07156e-16)
(111.172 -15.0116 -5.2419e-17)
(113.342 -14.7966 -1.54959e-21)
(115.536 -14.6673 -1.53962e-21)
(117.771 -14.5751 0)
(120.04 -14.5458 4.88222e-17)
(122.365 -14.5554 9.58339e-17)
(124.742 -14.6149 9.40004e-17)
(127.188 -14.7099 0)
(129.702 -14.8451 4.51222e-17)
(132.299 -15.0131 0)
(134.983 -15.2155 -4.31898e-17)
(137.765 -15.4492 4.22012e-17)
(140.652 -15.7141 0)
(143.656 -16.0105 8.03769e-17)
(146.788 -16.3377 -7.83273e-17)
(150.053 -16.697 3.81181e-17)
(153.486 -17.0881 1.05464e-21)
(157.044 -17.5126 0)
(160.873 -17.9704 -3.49933e-17)
(164.719 -18.4684 3.37318e-17)
(169.101 -18.9905 3.2908e-17)
(173.208 -19.5861 0)
(178.301 -20.1544 0)
(182.742 -20.8964 0)
(188.592 -21.4883 0)
(193.555 -22.428 2.68896e-17)
(200.275 -23.0613 2.60917e-17)
(205.787 -24.2166 -2.43757e-17)
(213.799 -24.9437 -2.3954e-17)
(219.747 -26.3593 1.17878e-21)
(229.569 -27.2151 -2.1771e-17)
(236.019 -29.0248 -1.89941e-17)
(248.207 -30.0202 0)
(255.439 -32.3409 -1.17592e-21)
(270.765 -33.4272 0)
(279.077 -36.1547 1.3494e-17)
(298.522 -37.1508 1.49757e-17)
(308.114 -39.9683 0)
(332.631 -40.5117 -1.28844e-17)
(343.206 -42.9182 0)
(373.232 -43.0096 0)
(384.402 -45.5909 0)
(422.224 -46.8315 0)
(436.687 -47.9345 2.03442e-19)
(483.71 -49.2853 7.3793e-23)
(503.914 -40.9873 0)
(550.797 -38.7366 3.65223e-18)
(575.047 4.51536 -4.76456e-19)
(545.313 18.2739 3.58975e-21)
(535.488 29.2204 -1.21501e-17)
(496.607 33.6266 4.85875e-18)
(482.672 33.9914 -3.9173e-18)
(449.457 34.0452 0)
(437.423 32.3182 0)
(410.199 31.735 -4.1645e-22)
(399.628 29.7017 1.19289e-19)
(377.519 29.1248 0)
(367.99 27.2974 0)
(349.932 26.9848 5.65266e-18)
(341.011 25.486 -8.90988e-22)
(326.024 25.4151 6.56738e-18)
(317.403 24.2069 0)
(304.672 24.1393 0)
(296.356 23.1526 -6.73185e-18)
(285.453 23.0067 8.47333e-18)
(277.455 22.1659 -8.78599e-22)
(268.034 21.8494 9.33244e-18)
(260.506 21.0241 -9.34062e-18)
(252.365 20.553 0)
(245.538 19.7239 -2.09657e-17)
(238.468 19.1723 -1.13102e-17)
(232.379 18.4889 -1.15358e-17)
(226.158 17.9767 -1.23293e-17)
(220.61 17.4456 0)
(215.047 16.972 -2.65424e-17)
(209.932 16.5298 -2.74262e-17)
(204.852 16.0455 0)
(200.161 15.6018 0)
(195.486 15.0434 -3.04283e-17)
(191.251 14.5465 0)
(186.959 13.8877 1.62141e-17)
(183.208 13.2975 4.71656e-22)
(179.303 12.5182 4.54831e-22)
(176.072 11.7819 -3.56418e-17)
(172.605 10.874 -3.65334e-17)
(169.936 9.92899 0)
(167.014 8.88989 0)
(164.96 7.70198 0)
(162.769 6.55404 0)
(161.365 5.21871 -2.58041e-22)
(160.082 3.99058 0)
(159.356 2.82298 0)
(158.81 1.31823 0)
(99.925 -2.03083 0)
(100.65 -9.52177 -5.49218e-17)
(102.397 -15.2014 5.72533e-17)
(104.604 -16.7078 0)
(106.844 -16.1511 5.51643e-17)
(109.003 -15.4592 -1.65974e-21)
(111.151 -15.1079 -5.24216e-17)
(113.319 -14.892 -1.5606e-21)
(115.511 -14.7623 1.01179e-16)
(117.743 -14.6699 0)
(120.01 -14.6407 0)
(122.333 -14.6506 -4.79149e-17)
(124.708 -14.7107 -9.39979e-17)
(127.152 -14.8065 0)
(129.665 -14.9427 -4.51197e-17)
(132.26 -15.112 0)
(134.942 -15.3157 4.31875e-17)
(137.722 -15.551 -4.22016e-17)
(140.608 -15.8177 0)
(143.61 -16.116 -8.03753e-17)
(146.74 -16.4454 7.83259e-17)
(150.004 -16.807 -3.81186e-17)
(153.435 -17.2007 -3.7084e-17)
(156.992 -17.6281 0)
(160.818 -18.0889 3.49938e-17)
(164.662 -18.5902 -3.37306e-17)
(169.043 -19.1156 0)
(173.148 -19.7153 3.14123e-17)
(178.237 -20.2871 0)
(182.677 -21.0341 0)
(188.523 -21.6296 0)
(193.484 -22.5756 8.02484e-22)
(200.201 -23.2126 -5.21842e-17)
(205.709 -24.3754 0)
(213.717 -25.1067 4.79091e-17)
(219.661 -26.5317 1.18777e-21)
(229.477 -27.3922 -2.17712e-17)
(235.921 -29.2142 0)
(248.102 -30.2159 0)
(255.328 -32.5528 3.25399e-17)
(270.648 -33.6467 0)
(278.952 -36.3941 0)
(298.396 -37.3983 1.49783e-17)
(307.982 -40.2365 0)
(332.502 -40.7844 0)
(343.067 -43.2055 -7.48232e-18)
(373.093 -43.2963 0)
(384.238 -45.8966 0)
(422.069 -47.1524 0)
(436.502 -48.2696 -2.05087e-19)
(483.6 -49.6496 -5.81717e-18)
(503.777 -41.3053 -3.67354e-18)
(550.839 -39.0757 -2.1308e-21)
(575.263 4.542 1.43108e-18)
(545.336 18.445 3.61437e-21)
(535.473 29.4529 6.0753e-18)
(496.508 33.8761 -2.44537e-21)
(482.594 34.2362 0)
(449.368 34.2827 3.1243e-18)
(437.346 32.5425 0)
(410.118 31.9531 -3.92298e-18)
(399.559 29.9059 5.10502e-22)
(377.453 29.3244 0)
(367.933 27.4848 -2.0323e-18)
(349.876 27.1699 -5.65334e-18)
(340.963 25.6611 3.81093e-18)
(325.978 25.5904 0)
(317.36 24.3746 0)
(304.631 24.3071 -7.53051e-18)
(296.317 23.3138 -1.25876e-21)
(285.415 23.1675 -8.47382e-18)
(277.417 22.3213 8.0368e-18)
(267.996 22.0028 5.14068e-23)
(260.468 21.1716 1.8682e-17)
(252.328 20.6967 0)
(245.501 19.8615 2.0967e-17)
(238.433 19.3057 1.13106e-17)
(232.344 18.6175 0)
(226.125 18.102 -1.2329e-17)
(220.578 17.5678 0)
(215.016 17.0916 2.65424e-17)
(209.901 16.6471 1.37131e-17)
(204.822 16.1602 0)
(200.13 15.7142 0)
(195.454 15.1527 3.04276e-17)
(191.218 14.6531 -1.57607e-17)
(186.925 13.9903 -1.62138e-17)
(183.173 13.3968 3.35673e-17)
(179.266 12.6127 1.72264e-17)
(176.034 11.8719 1.782e-17)
(172.564 10.9579 1.82657e-17)
(169.895 10.0062 0)
(166.971 8.9599 -1.93176e-17)
(164.915 7.7618 0)
(162.723 6.60555 -2.03905e-17)
(161.32 5.25648 -2.10277e-17)
(160.04 4.01937 0)
(159.315 2.8397 0)
(158.777 1.32483 0)
(99.9251 -2.04503 -5.40267e-17)