/*--------------------------------*- C++ -*----------------------------------*\
| =========                 |                                                 |
| \\      /  F ield         | OpenFOAM: The Open Source CFD Toolbox           |
|  \\    /   O peration     | Version:  2412                                  |
|   \\  /    A nd           | Website:  www.openfoam.com                      |
|    \\/     M anipulation  |                                                 |
\*---------------------------------------------------------------------------*/
FoamFile
{
    version     2.0;
    format      ascii;
    arch        "LSB;label=32;scalar=64";
    class       volScalarField;
    location    "0.4";
    object      epsilon;
}
// * * * * * * * * * * * * * * * * * * * * * * * * * * * * * * * * * * * * * //

dimensions      [0 2 -3 0 0 0 0];

internalField   nonuniform List<scalar> 
13077
(
431.796
580.918
864.673
1224.82
1521.2
1647.7
1606.25
1455.82
1254.69
1042.5
856.141
731.268
671.926
656.443
662.781
678.668
698.095
719.254
741.072
764.164
788.104
814.23
841.837
872.928
906.188
944.723
986.008
1035.09
1087.09
1150.37
1215.74
1297.68
1379.34
1487.35
1591.96
1740.2
1876.93
2086.24
2289.77
432.517
582.697
867.5
1227.75
1523.34
1649.05
1607.22
1456.68
1255.44
1043.08
856.412
731.087
671.392
655.754
662.069
677.982
697.44
718.62
740.448
763.54
787.473
813.585
841.175
872.245
905.486
943.999
985.267
1034.33
1086.33
1149.6
1214.97
1296.93
1378.58
1486.6
1591.17
1739.46
1876.09
2085.37
2288.5
2657.31
3078.55
3843.92
4713.72
6161.31
7572.19
9495.55
10198
11032.8
11530.5
15852.2
21342.1
38226.6
121917
155800
121065
95710.5
75429.8
55758.4
36188.3
21685.2
12855.5
8970.26
6924.43
5767.29
4904.51
4292.02
3794.1
3413.88
3106.57
433.253
584.497
870.331
1230.62
1525.37
1650.24
1608.04
1457.42
1256.12
1043.66
856.721
730.964
670.915
655.117
661.405
677.34
696.829
718.028
739.867
762.958
786.886
812.985
840.562
871.614
904.839
943.337
984.594
1033.65
1085.65
1148.94
1214.33
1296.32
1377.98
1486.06
1590.61
1739.01
1875.58
2084.94
2287.75
2656.64
3078.19
3846.43
4722.03
6186
7624.9
9607.85
10366.9
11228.8
11692.4
16008.4
21547
38817.1
124059
157265
122858
97922.6
77757.8
58257.9
38550.5
23702.6
14188.4
9896.35
7566.68
6282.02
5308.83
4635.14
4073.9
3652.15
3302.25
3017.7
2777.69
2568.55
2394.75
2243.22
2110.75
1976.43
1835.08
1682.7
1533.04
1399.06
1290.7
1210.4
1155.39
1120.39
1097.08
1080.31
1063.88
1049.82
1034.68
1025.67
1016.01
1018.26
1019.33
1043.79
1071.91
1160.01
1325.93
1770.62
2473.71
434.006
586.323
873.175
1233.45
1527.28
1651.27
1608.69
1458.04
1256.73
1044.22
857.06
730.895
670.497
654.534
660.79
676.745
696.262
717.48
739.329
762.42
786.342
812.43
839.995
871.033
904.248
942.736
983.99
1033.05
1085.06
1148.39
1213.8
1295.86
1377.56
1485.72
1590.3
1738.86
1875.45
2084.97
2287.56
2656.7
3078.71
3850.16
4732.06
6213.61
7682.5
9729.8
10552.1
11446.7
11874.7
16182.7
21768.9
39425.6
126209
158692
124730
100285
80269.2
60991.5
41186.7
26027.4
15770.6
11013.4
8342.54
6903.83
5796.09
5048.16
4409.27
3936.62
3534.53
3212.23
2936.8
2700.58
2502.96
2333.21
2185.99
2040.67
1890.48
1730.83
1574.63
1434.86
1321.44
1236.91
1178.43
1140.65
1115.23
1096.84
1079.22
1064.18
1048.31
1038.7
1028.71
1030.82
1032.06
1057.26
1086.76
1179.09
1352.36
1817.09
2543.82
434.777
588.179
876.04
1236.25
1529.09
1652.14
1609.19
1458.52
1257.26
1044.76
857.431
730.886
670.14
654.008
660.228
676.2
695.743
716.98
738.838
761.928
785.846
811.923
839.479
870.506
903.715
942.201
983.46
1032.54
1084.57
1147.94
1213.41
1295.56
1377.32
1485.62
1590.26
1739.04
1875.71
2085.51
2287.97
2657.54
3080.19
3855.19
4743.91
6244.32
7745.28
9861.99
10754.5
11688.7
12079.5
16377
22009.4
40053.3
128370
160083
126690
102813
82979.3
63980.3
44126.8
28704.5
17651.1
12365.4
9284.21
7658.89
6386.5
5548.11
4813.5
4278.11
3811.66
3443.02
3124.3
2855.22
2628.96
2437.44
2272.73
2114.49
1954.01
1786.01
1622.35
1475.98
1356.75
1267.35
1204.83
1163.82
1135.9
1115.6
1096.56
1080.38
1063.66
1053.35
1042.94
1044.86
1046.24
1072.18
1103.12
1199.85
1380.67
1865.82
2616.14
435.566
590.067
878.927
1239.02
1530.8
1652.86
1609.52
1458.87
1257.72
1045.28
857.84
730.941
669.853
653.546
659.725
675.711
695.278
716.531
738.397
761.487
785.4
811.47
839.019
870.039
903.247
941.737
983.01
1032.11
1084.19
1147.62
1213.17
1295.43
1377.29
1485.76
1590.51
1739.58
1876.4
2086.6
2289.06
2659.23
3082.71
3861.66
4757.76
6278.37
7813.61
10005.1
10975.6
11957.1
12309.3
16593.5
22270.6
40701.7
130539
161442
128752
105522
85905.9
67248.1
47404.1
31784.6
19888.1
14007.1
10432.7
8580.87
7106.11
6157.06
5303.82
4690.61
4144.25
3718.22
3346.26
3037.07
2776.15
2558.5
2372.94
2199.44
2026.96
1849.34
1677.13
1523.21
1397.32
1302.29
1235.09
1190.3
1159.46
1136.91
1116.19
1098.66
1080.95
1069.81
1058.91
1060.55
1062.05
1088.73
1121.18
1222.46
1411.06
1917
2690.88
436.374
591.988
881.841
1241.76
1532.4
1653.42
1609.68
1459.1
1258.1
1045.79
858.296
731.073
669.643
653.155
659.288
675.283
694.873
716.14
738.014
761.102
785.012
811.075
838.62
869.637
902.85
941.352
982.648
1031.79
1083.92
1147.44
1213.08
1295.49
1377.48
1486.17
1591.09
1740.53
1877.58
2088.3
2290.89
2661.87
3086.38
3869.69
4773.8
6316.06
7887.94
10160.1
11216.9
12254.6
12566.7
16834.7
22554.8
41372.9
132720
162772
130929
108432
89069.1
70820.9
51055
35323.4
22549.5
16005.5
11840.1
9712.87
7988.53
6903.56
5902.55
5192.21
4545.96
4048.34
3610.41
3251.91
2948.79
2699.59
2489.05
2297.44
2110.89
1922.14
1740.11
1577.53
1443.97
1342.44
1269.81
1220.61
1186.33
1161.12
1138.42
1119.31
1100.42
1088.32
1076.82
1078.12
1079.71
1107.13
1141.14
1247.16
1443.77
1970.88
2768.31
437.203
593.944
884.781
1244.48
1533.9
1653.83
1609.69
1459.2
1258.43
1046.31
858.811
731.29
669.521
652.845
658.924
674.926
694.534
715.815
737.694
760.781
784.687
810.745
838.288
869.308
902.531
941.055
982.383
1031.58
1083.78
1147.41
1213.17
1295.77
1377.92
1486.89
1592.02
1741.91
1879.28
2090.67
2293.53
2665.53
3091.31
3879.45
4792.22
6357.7
7968.76
10327.7
11480.2
12584.1
12855.1
17103.6
22864.7
42069
134914
164079
133236
111564
92490.9
74726.6
55118.5
39381.2
25713.3
18442.2
13571.8
11109.9
9077
7824.6
6638.68
5806.43
5034.45
4446.9
3926.65
3507.1
3152.23
2864.66
2624.03
2410.8
2207.66
2005.98
1812.65
1640.12
1497.71
1388.65
1309.71
1255.35
1217.02
1188.67
1163.63
1142.65
1122.39
1109.16
1096.95
1097.82
1099.46
1127.61
1163.26
1274.19
1479.07
2027.73
2848.74
438.052
595.937
887.752
1247.17
1535.29
1654.08
1609.54
1459.19
1258.7
1046.85
859.399
731.607
669.499
652.625
658.643
674.646
694.27
715.561
737.445
760.53
784.433
810.487
838.032
869.059
902.3
940.853
982.227
1031.49
1083.78
1147.54
1213.45
1296.27
1378.64
1487.94
1593.34
1743.77
1881.55
2093.78
2297.06
2670.34
3097.63
3891.11
4813.28
6403.64
8056.6
10508.9
11767.2
12949
13177.8
17403.3
23203.4
42792.8
137123
165370
135693
114942
96195.1
78995
59635.7
44021.8
29467.2
21414.2
15709.1
12841.8
10427
8967.95
7549.88
6563.86
5632.69
4931.38
4307.63
3811.94
3393.17
3058.64
2781.53
2542.34
2319.54
2102.76
1896.37
1712.37
1559.74
1441.94
1355.64
1295.23
1252.14
1220.07
1192.26
1169.09
1147.2
1132.64
1119.6
1119.92
1121.57
1150.45
1187.82
1303.87
1517.27
2087.88
2932.56
438.924
597.969
890.754
1249.84
1536.59
1654.18
1609.23
1459.07
1258.93
1047.41
860.072
732.038
669.588
652.506
658.455
674.453
694.089
715.389
737.275
760.357
784.257
810.31
837.86
868.899
902.164
940.758
982.188
1031.54
1083.93
1147.86
1213.94
1297.03
1379.65
1489.34
1595.09
1746.16
1884.47
2097.69
2301.57
2676.39
3105.49
3904.86
4837.21
6454.28
8152.06
10705
12079.9
13352.9
13538.8
17737.7
23574
43546.9
139349
166651
138318
118595
100208
83657.6
64649.4
49311.1
33906.9
25034.5
18352.1
14996.1
12109.4
10395.1
8685.13
7504.4
6370.56
5524.47
4769.7
4178.34
3680.09
3287.69
2966.04
2695.51
2449.28
2214.77
1993.23
1795.96
1631.49
1503.52
1408.6
1341.1
1292.38
1255.92
1224.82
1199.06
1175.27
1159.14
1145.1
1144.76
1146.37
1175.97
1215.13
1336.51
1558.74
2151.72
3020.22
439.819
600.041
893.791
1252.49
1537.79
1654.13
1608.78
1458.85
1259.13
1048.02
860.849
732.598
669.803
652.501
658.37
674.357
694.002
715.307
737.194
760.272
784.169
810.223
837.78
868.837
902.134
940.78
982.28
1031.74
1084.26
1148.37
1214.66
1298.07
1380.99
1491.15
1597.31
1749.13
1888.08
2102.48
2307.15
2683.82
3115.03
3920.9
4864.3
6510.03
8255.76
10916.9
12420.6
13799.8
13942.7
18110.8
23980.4
44334.7
141596
167932
141134
122552
104558
88747.4
70204.1
55316.2
39134.3
29430.6
21620.9
17681
14213.3
12184.6
10107.7
8679.94
7287.09
6255.73
5333.98
4621.57
4023.74
3559.54
3183.16
2874.54
2600.18
2344.76
2105.58
1892.93
1714.69
1574.85
1469.84
1393.98
1338.61
1296.93
1261.93
1233.1
1207.05
1189.09
1173.87
1172.72
1174.22
1204.53
1245.59
1372.53
1603.91
2219.69
3112.27
440.738
602.156
896.864
1255.13
1538.89
1653.94
1608.18
1458.53
1259.31
1048.68
861.746
733.304
670.159
652.623
658.401
674.37
694.018
715.325
737.211
760.285
784.178
810.234
837.802
868.883
902.219
940.929
982.514
1032.1
1084.77
1149.1
1215.64
1299.41
1382.68
1493.39
1600.05
1752.73
1892.45
2108.24
2313.91
2692.74
3126.42
3939.46
4894.85
6571.35
8368.4
11146
12791.4
14294.4
14394.3
18527.2
24426.7
45159.7
143868
169221
144166
126850
109277
94299.2
76344.9
62103.1
45253.9
34741.6
25656.1
21027.3
16849.7
14435.1
11898.7
10157.6
8433.12
7163.7
6027.97
5161.35
4437.88
3883.94
3439.87
3084.62
2776.33
2496.09
2236.25
2005.71
1811.42
1657.68
1540.81
1455.1
1391.83
1343.95
1304.3
1271.83
1243.12
1223
1206.37
1204.24
1205.56
1236.56
1279.61
1412.36
1653.27
2292.34
3209.36
441.682
604.315
899.978
1257.75
1539.9
1653.6
1607.44
1458.13
1259.49
1049.43
862.785
734.177
670.675
652.887
658.561
674.505
694.15
715.456
737.337
760.405
784.295
810.354
837.937
869.048
902.433
941.219
982.905
1032.64
1085.48
1150.07
1216.9
1301.08
1384.77
1496.11
1603.34
1757.03
1897.66
2115.06
2321.95
2703.31
3139.84
3960.78
4929.19
6638.74
8490.76
11393.6
13195.1
14841.4
14899.5
18992.2
24917.6
46025.8
146167
170529
147444
131527
114400
100350
83117.5
69735.3
52368.5
41112.3
30616.3
25188.1
20152.5
17268
14160.4
12023.5
9874.53
8298.55
6887.42
5823.21
4940.18
4273.3
3744.93
3332.22
2982.7
2672.82
2388.7
2137.27
1924.22
1754.17
1623.3
1525.91
1453.27
1397.99
1352.79
1315.99
1284.12
1261.44
1243.14
1239.83
1240.89
1272.54
1317.71
1456.54
1707.38
2370.29
3312.26
442.653
606.522
903.134
1260.36
1540.82
1653.13
1606.58
1457.66
1259.69
1050.27
863.987
735.239
671.37
653.312
658.867
674.775
694.413
715.713
737.586
760.645
784.532
810.596
838.196
869.344
902.786
941.663
983.466
1033.37
1086.42
1151.3
1218.45
1303.11
1387.28
1499.34
1607.25
1762.08
1903.77
2123.02
2331.4
2715.68
3155.48
3985.12
4967.68
6712.77
8623.67
11661.2
13634.2
15446.5
15464.5
19511.7
25458.4
46937.5
148500
171868
150998
136630
119964
106936
90567.3
78272.6
60575.2
48685.2
36671.8
30335.6
24278.6
20828.3
17018.4
14385.3
11695.7
9725.2
7958.77
6640.26
5553.39
4743.44
4109.36
3625.39
3225.42
2879.93
2567.14
2291.24
2056.18
1866.91
1719.49
1608.23
1524.4
1460.27
1408.42
1366.46
1330.82
1305.12
1284.84
1280.09
1280.77
1313.04
1360.45
1505.66
1766.92
2454.25
3421.89
443.651
608.778
906.336
1262.96
1541.65
1652.52
1605.59
1457.13
1259.91
1051.23
865.378
736.513
672.264
653.915
659.334
675.197
694.819
716.109
737.971
761.019
784.9
810.97
838.592
869.783
903.293
942.274
984.213
1034.31
1087.59
1152.81
1220.34
1305.53
1390.26
1503.13
1611.83
1767.95
1910.87
2132.23
2342.37
2730.01
3173.56
4012.79
5010.71
6794.02
8768.04
11950.6
14111.9
16115.7
16096.6
20092.4
26054.9
47899.6
150872
173252
154864
142209
126013
114100
98738.9
87768.9
69960.7
57591.8
43995.5
36652.7
29403.1
25280.9
20622.1
17375
14002.8
11526.7
9302.08
7655.35
6306.85
5314.62
4547.14
3974.19
3512.1
3123.54
2776.68
2472.03
2211.09
1999.11
1832.03
1704.23
1607
1532.26
1472.43
1424.28
1384.14
1354.84
1332.19
1325.72
1325.89
1358.73
1408.52
1560.44
1832.66
2545.1
3539.33
444.678
611.086
909.589
1265.56
1542.41
1651.79
1604.49
1456.56
1260.19
1052.34
866.984
738.025
673.383
654.718
659.983
675.788
695.388
716.661
738.506
761.541
785.415
811.492
839.138
870.38
903.967
943.069
985.163
1035.49
1089.03
1154.63
1222.58
1308.38
1393.74
1507.54
1617.14
1774.72
1919.04
2142.81
2355.02
2746.49
3194.3
4044.08
5058.71
6883.18
8924.92
12263.4
14631.2
16855.7
16803.9
20741.9
26713.7
48917.6
153289
174694
159083
148324
132594
121881
107676
98272.1
80597.9
67943.5
52749.9
44320.9
35709.7
30803.2
25139.7
21146.5
16925.3
13807.2
10994.1
8923.73
7238.39
6012.79
5076.01
4391.25
3852.14
3411.15
3023.63
2685.05
2393.58
2154.68
1964.18
1816.58
1703.27
1615.75
1546.29
1490.7
1445.18
1411.59
1386.11
1377.55
1377.05
1410.38
1462.72
1621.7
1905.51
2643.85
3665.86
445.736
613.448
912.895
1268.17
1543.09
1650.94
1603.29
1455.96
1260.54
1053.63
868.835
739.806
674.753
655.745
660.835
676.568
696.136
717.386
739.209
762.227
786.092
812.177
839.85
871.15
904.825
944.064
986.334
1036.91
1090.76
1156.78
1225.2
1311.69
1397.77
1512.6
1623.23
1782.45
1928.39
2154.86
2369.48
2765.3
3217.95
4079.34
5112.16
6980.98
9095.41
12601.7
15195.8
17673.8
17595.8
21468.9
27442.4
49997.6
155757
176213
163700
155043
139761
130323
117421
109823
92543.8
79825.3
63074
53504.3
43376.2
37570.6
30747.9
25869.8
20614.4
16693.1
13131
10515.8
8396.59
6871.22
5718.52
4892.45
4257.24
3752
3315.68
2936.92
2609.35
2338.46
2119.96
1948.58
1815.89
1712.92
1631.8
1567.25
1515.23
1476.51
1447.63
1436.54
1435.17
1468.9
1523.96
1690.41
1986.55
2751.66
3802.99
446.825
615.869
916.26
1270.78
1543.71
1649.99
1602
1455.35
1260.99
1055.11
870.965
741.887
676.403
657.022
661.913
677.56
697.085
718.304
740.1
763.095
786.949
813.041
840.744
872.109
905.883
945.276
987.744
1038.6
1092.79
1159.29
1228.25
1315.5
1402.38
1518.39
1630.17
1791.24
1939.01
2168.53
2385.91
2786.66
3244.77
4118.96
5171.57
7088.23
9280.78
12967.7
15809.5
18578.3
18482.7
22283.3
28249.5
51146.5
158284
177825
168765
162443
147572
139474
128013
122454
105839
93292.3
75072.1
64334.3
52557.1
45738.3
37614.6
31716
25236
20331.6
15830.2
12519.8
9843.18
7932.34
6503.34
5497.79
4741.99
4157.49
3662.27
3235.78
2865.42
2556.42
2304.34
2104.3
1948.14
1826.43
1731.17
1655.74
1595.89
1550.99
1518.01
1503.86
1501.36
1535.36
1593.34
1767.69
2077.03
2869.96
3952.49
447.947
618.35
919.687
1273.41
1544.27
1648.94
1600.64
1454.74
1261.57
1056.84
873.41
744.305
678.368
658.579
663.244
678.787
698.257
719.437
741.197
764.165
788.003
814.103
841.837
873.275
907.159
946.725
989.415
1040.59
1095.16
1162.18
1231.75
1319.85
1407.64
1524.95
1638.04
1801.16
1951
2183.94
2404.49
2810.8
3275.07
4163.34
5237.52
7205.85
9482.42
13363.9
16476.4
19578
19476.5
23196.5
29144.5
52371.7
160880
179552
174337
170613
156096
149380
139491
136193
120507
108370
88807.3
76897.3
63366.8
55422.3
45877
38837.2
30955.5
24881.9
19228.1
15043.3
11655.5
9249.87
7466.74
6232.39
5324.5
4641.67
4074.98
3591.58
3170.41
2815.92
2523.49
2288.78
2104.13
1959.59
1847.08
1758.41
1689.05
1636.69
1598.76
1580.89
1576.95
1611.05
1672.17
1854.9
2178.45
3000.39
4116.47
449.105
620.896
923.184
1276.06
1544.77
1647.8
1599.22
1454.17
1262.3
1058.84
876.209
747.1
680.683
660.449
664.858
680.278
699.68
720.809
742.525
765.459
789.277
815.382
843.151
874.667
908.673
948.431
991.368
1042.9
1097.88
1165.5
1235.74
1324.79
1413.58
1532.35
1646.91
1812.32
1964.48
2201.25
2425.4
2837.96
3309.17
4212.94
5310.63
7334.83
9701.88
13793
17201.3
20682.8
20590.5
24221.5
30138.4
53681.8
163553
181415
180478
179656
165408
160096
151892
151057
136557
125057
104302
91230.9
75869.2
66685.9
55621.6
47342.1
37915.6
30500.3
23473.7
18211.5
13927.7
10890.8
8654.3
7127.71
6027.27
5221.8
4567.94
4016.51
3534.93
3126.08
2785.04
2508.3
2288.93
2116.47
1982.84
1878
1797.03
1735.62
1691.69
1669.27
1663.49
1697.46
1761.97
1953.62
2292.56
3144.89
4297.4
450.299
623.51
926.754
1278.74
1545.24
1646.59
1597.76
1453.66
1263.23
1061.15
879.407
750.315
683.389
662.669
666.789
682.062
701.38
722.447
744.11
767.001
790.792
816.901
844.705
876.307
910.447
950.416
993.627
1045.55
1101
1169.28
1240.26
1330.35
1420.28
1540.66
1656.87
1824.82
1979.59
2220.62
2448.84
2868.42
3347.4
4268.25
5391.62
7476.3
9940.92
14258.1
17989
21903.3
21840.1
25373.2
31243.5
55086.3
166315
183439
187262
189688
175597
171676
165250
167061
153986
143332
121540
107327
90075.8
79536.3
66872.3
57276.4
46211.6
37316.9
28714.4
22162.2
16770.6
12936.8
10122.6
8222.88
6878.08
5918.99
5158.35
4525.36
3971.93
3498.12
3098.49
2770.66
2508.84
2302.14
2142.54
2017.84
1922.68
1850.23
1798.97
1770.99
1762.88
1796.42
1864.58
2065.73
2421.46
3305.79
4498.22
451.531
626.196
930.404
1281.45
1545.68
1645.32
1596.28
1453.23
1264.37
1063.82
883.051
754
686.533
665.278
669.073
684.175
703.391
724.383
745.979
768.818
792.576
818.684
846.523
878.218
912.503
952.705
996.216
1048.57
1104.54
1173.54
1245.34
1336.6
1427.77
1549.94
1667.99
1838.77
1996.44
2242.21
2475.03
2902.46
3390.16
4329.82
5481.24
7631.51
10201.5
14762.7
18845.4
23251.3
23242.4
26668.8
32474.3
56595.8
169177
185652
194768
200843
186762
184183
179599
184213
172782
163156
140481
125140
105953
93931.9
79591.6
68615.7
55870.6
45410.2
35074.3
27032.6
20307.2
15484.1
11940.2
9565.88
7910.95
6758.93
5866.99
5136.01
4497.16
3945.82
3475.55
3085.56
2771.74
2522.89
2331.26
2182.09
2069.45
1983.49
1923.26
1888.43
1877.35
1910.07
1982.17
2193.47
2567.64
3485.8
4722.38
452.805
628.958
934.141
1284.22
1546.1
1644.01
1594.8
1452.92
1265.79
1066.9
887.197
758.207
690.164
668.325
671.751
686.654
705.749
726.649
748.164
770.941
794.655
820.758
848.632
880.424
914.867
955.323
999.164
1051.99
1108.53
1178.32
1251.04
1343.57
1436.13
1560.28
1680.37
1854.27
2015.19
2266.21
2504.21
2940.39
3437.86
4398.26
5580.35
7801.87
10485.8
15310.6
19776.5
24739.5
24816.7
28128.2
33846.7
58222.2
172154
188083
203088
213275
199016
197684
194971
202515
192924
184482
161062
144600
123435
109797
93695.5
81274.5
66845.7
54787.7
42630.2
32940.2
24662.8
18640.7
14188.3
11214.5
9167.02
7772.47
6718.65
5869.82
5129.58
4485.94
3930.67
3465.05
3087.44
2786.59
2555.33
2375.87
2241.64
2139.05
2067.77
2024.51
2009.64
2041.01
2117.36
2339.51
2734.05
3688.18
4973.96
454.12
631.801
937.972
1287.04
1546.52
1642.67
1593.34
1452.75
1267.5
1070.44
891.9
762.997
694.339
671.859
674.871
689.543
708.493
729.282
750.702
773.402
797.062
823.153
851.058
882.954
917.565
958.297
1002.5
1055.85
1113.01
1183.68
1257.4
1351.33
1445.43
1571.75
1694.12
1871.46
2035.99
2292.82
2536.62
2982.58
3490.94
4474.21
5689.9
7988.94
10796.3
15906.3
20789.2
26381.9
26584.8
29774.1
35379.6
59979
175259
190767
212323
227158
212490
212256
211401
221969
214384
207254
183211
165623
142435
127038
109074
95127.7
79027
65381.7
51391
39959.8
29949.5
22518.6
16958.2
13236.6
10695.1
8996.15
7742.58
6751.92
5891.67
5138.64
4481.47
3924
3468.14
3103.05
2822.6
2605.54
2444.52
2321.38
2236.44
2182.73
2163.04
2192.36
2273.29
2507.05
2924.24
3916.76
5257.75
455.481
634.729
941.904
1289.93
1546.95
1641.33
1591.94
1452.76
1269.58
1074.49
897.226
768.435
699.12
675.938
678.486
692.89
711.668
732.326
753.631
776.238
799.83
825.901
853.835
885.838
920.628
961.657
1006.25
1060.17
1118.02
1189.64
1264.46
1359.94
1455.72
1584.44
1709.33
1890.47
2059
2322.27
2572.54
3029.38
3549.92
4558.42
5810.94
8194.51
11135.9
16554.8
21891.5
28193.4
28571.1
31632.9
37094.3
61881.1
178510
193741
222585
242690
227333
227984
228923
242572
237132
231416
206851
188120
162862
145558
125611
110037
92266.6
77062.6
61291.7
48103.6
36245.9
27222.1
20346.8
15708.3
12551.4
10472.3
8972.56
7811.36
6809.65
5927.82
5149.21
4480.63
3928.95
3484.47
3142.9
2879.01
2684.63
2535.99
2434.08
2367.38
2341.52
2367.89
2453.73
2699.89
3142.41
4176.08
5579.43
456.889
637.748
945.947
1292.9
1547.41
1640.01
1590.62
1452.99
1272.06
1079.12
903.245
774.593
704.578
680.627
682.652
696.749
715.324
735.827
756.995
779.491
803
829.039
856.995
889.107
924.087
965.437
1010.46
1064.99
1123.59
1196.26
1272.29
1369.45
1467.09
1598.44
1726.11
1911.44
2084.4
2354.77
2612.28
3081.21
3615.33
4651.69
5944.66
8420.56
11507.7
17262
23091.9
30190.7
30802.8
33735.2
39015.4
63945.7
181925
197046
234000
260093
243718
244967
247576
264321
261134
256908
231902
212001
184622
165266
143201
125871
106407
89666.6
72204.9
57312.9
43578.1
32830.5
24447.4
18710.8
14798.8
12248.8
10446.6
9080.83
7913.29
6881.1
5959.03
5156.94
4488.4
3945.98
3528.44
3206.12
2970.09
2789.66
2666.6
2583.68
2549.93
2572.13
2663.22
2922.61
3393.6
4471.54
5945.6
458.347
640.863
950.109
1295.96
1547.92
1638.73
1589.41
1453.49
1275
1084.41
910.035
781.554
710.79
685.997
687.436
701.179
719.518
739.838
760.843
783.206
806.612
832.607
860.576
892.799
927.977
969.669
1015.15
1070.35
1129.76
1203.57
1280.92
1379.93
1479.62
1613.86
1744.6
1934.52
2112.38
2390.57
2656.14
3138.51
3687.77
4754.92
6092.36
8669.34
11915.4
18034.3
24400.4
32391.4
33310.2
36116.1
41171.4
66191.9
185524
200729
246705
279618
261839
263316
267401
287213
286355
283671
258290
237183
207628
186080
161753
142523
121306
103026
83965.9
67466.7
51908.7
39381.4
29336.9
22323.9
17503.4
14377.2
12206.3
10596
9235.34
8029.55
6939.99
5979.04
5168.94
4506.16
3994.31
3599.08
3310.92
3090.79
2941.24
2838.01
2794.14
2810.59
2907.23
3180.68
3683.78
4809.49
6364.01
459.857
644.08
954.4
1299.14
1548.5
1637.52
1588.35
1454.3
1278.47
1090.41
917.68
789.405
717.844
692.129
692.913
706.251
724.314
744.418
765.232
787.435
810.715
836.648
864.62
896.952
932.336
974.394
1020.36
1076.3
1136.59
1211.64
1290.43
1391.45
1493.38
1630.78
1764.91
1959.87
2143.14
2429.96
2704.48
3201.77
3767.89
4869.1
6255.51
8943.41
12363.1
18879.6
25828.3
34815.1
36127
38816.1
43595
68641.5
189330
204840
260852
301541
281921
283161
288447
311245
312758
311646
285940
263585
231800
207926
181196
159907
136848
116993
96403.5
78404.8
61139.9
46857.8
35061.7
26616.2
20730
16910.8
14294.6
12393.9
10810.3
9406.71
8124.52
6977.05
5997.23
5187.56
4559.09
4072.97
3719.53
3449.69
3266.92
3138.17
3081.3
3089.9
3192.3
3480.62
4020.07
5197.41
6843.61
461.422
647.406
958.831
1302.44
1549.16
1636.41
1587.48
1455.47
1282.53
1097.22
926.275
798.245
725.837
699.114
699.164
712.039
729.781
749.632
770.221
792.235
815.363
841.213
869.173
901.61
937.207
979.65
1026.15
1082.86
1144.12
1220.51
1300.88
1404.08
1508.47
1649.33
1787.17
1987.68
2176.91
2473.22
2757.67
3271.51
3856.42
4995.32
6435.74
9245.66
12855.7
19806.5
27388.6
37483.1
39290
41882.1
46324.2
71319
193368
209438
276608
326167
304217
304651
310772
336416
340307
340775
314782
291134
257064
230742
201471
177963
152948
131451
109365
89957.5
71131.1
55187.6
41626.1
31634.6
24535.3
19900.2
16753.8
14511.2
12672.6
11046.9
9547.2
8184.53
7004.1
6016.97
5245.29
4646.26
4211.19
3879.06
3654.51
3493.66
3420.05
3418.07
3526.28
3830.22
4410.85
5644.02
7394.67
463.046
650.848
963.413
1305.88
1549.94
1635.44
1586.84
1457.06
1287.25
1104.93
935.922
808.186
734.877
707.054
706.285
718.63
736
755.556
775.88
797.67
820.613
846.355
874.285
906.821
942.633
985.483
1032.54
1090.1
1152.39
1230.24
1312.32
1417.91
1524.97
1669.62
1811.55
2018.12
2213.92
2520.66
2816.13
3348.32
3954.14
5134.79
6634.9
9579.36
13398.5
20825.3
29096.2
40418.8
42839.8
45367.5
49402.9
74252.6
197666
214587
294152
353823
329013
327956
334441
362732
368965
371001
344746
319758
283354
254471
222531
196649
169549
146318
122728
101971
81723.8
64254
48987.5
37394.4
28960.1
23388.2
19621.6
16981.1
14853.8
12982.7
11242.7
9637.04
8223.87
7025.47
6079.67
5341.3
4804.47
4394.39
4117.3
3916.01
3820.86
3804.71
3918.57
4238.68
4865.95
6159.45
8028.81
464.732
654.412
968.159
1309.48
1550.86
1634.62
1586.48
1459.12
1292.71
1113.64
946.736
819.348
745.087
716.064
714.38
726.122
743.061
762.273
782.286
803.811
826.532
852.137
880.014
912.637
948.666
991.941
1039.6
1098.05
1161.46
1240.89
1324.83
1433
1542.99
1691.76
1838.18
2051.39
2254.42
2572.63
2880.3
3432.81
4061.91
5288.87
6855.02
9948.26
13997.8
21947.8
30968.6
43648.2
46820.6
49334
52881.7
77473.9
202255
220360
313679
384858
356628
353275
359537
390201
398698
402267
375766
349392
310605
279060
244337
215933
186617
161544
136409
114321
92767.5
73916.6
57061.1
43874
34021.9
27404.4
22927.3
19829.8
17379.4
15242
13242.6
11369.7
9692.81
8247.64
7093.24
6184.61
5521.74
5014.43
4671.36
4419.14
4296.28
4261.31
4380.28
4716.85
5396.81
6755.3
8758.94
466.483
658.107
973.083
1313.27
1551.94
1634.01
1586.43
1461.73
1299
1123.45
958.84
831.868
756.602
726.273
723.57
734.624
751.066
769.877
789.528
810.74
833.195
858.626
886.42
919.117
955.359
999.077
1047.37
1106.78
1171.39
1252.52
1338.47
1449.46
1562.64
1715.9
1867.23
2087.72
2298.68
2629.49
2950.66
3525.67
4180.68
5459.05
7098.42
10356.6
14660.9
23187.8
33025.9
47200.2
51279.9
53851.5
56819.4
81019.2
207168
226839
335393
419637
387416
380834
386154
418841
429474
434516
407775
379969
338757
304459
266849
235790
204127
177100
150355
126924
104137
84034
65734.4
51016.2
39710.6
31960.3
26687.4
23073.6
20266
17844.2
15572.1
13413.8
11446.5
9720.09
8320.55
7206.84
6389.37
5761.53
5335.9
5019.71
4861.28
4801.49
4924.47
5277.33
6016.51
7444.64
9599.09
468.303
661.941
978.198
1317.26
1553.23
1633.65
1586.77
1464.95
1306.2
1134.47
972.373
845.896
769.578
737.828
733.989
744.262
760.13
778.474
797.703
818.546
840.683
865.898
893.576
926.325
962.774
1006.95
1055.9
1116.34
1182.25
1265.21
1353.34
1467.37
1584.02
1742.18
1898.88
2127.31
2347
2691.62
3027.73
3627.65
4311.49
5646.98
7367.68
10809.2
15396.1
24561.4
35291.6
51107.5
56269.4
58999.2
61284
84929.8
212444
234117
359512
458527
421761
410891
414408
448677
461262
467692
440708
411427
367752
330618
290033
256196
222066
192973
164539
139726
115739
94482.3
74884.7
58736.8
45988.6
37046.1
30903.1
26715.6
23518.1
20797.3
18246
15792.9
13516.4
11478.8
9798.18
8442.08
7437.61
6661.8
6133.54
5737.35
5533.44
5441.17
5566.31
5934.62
6739.8
8241.93
10564
470.196
665.923
983.52
1321.48
1554.75
1633.57
1587.54
1468.85
1314.43
1146.85
987.488
861.601
784.184
750.894
745.791
755.177
770.383
788.186
806.921
827.332
849.091
874.038
901.557
934.332
970.976
1015.62
1065.27
1126.79
1194.08
1279.01
1369.49
1486.82
1607.25
1770.73
1933.32
2170.42
2399.69
2759.47
3112.07
3739.55
4455.49
5854.5
7665.68
11311.6
16213
26087.5
37793.5
55407.4
61844.3
64866
66353.8
89252.9
218126
242298
386262
501891
460076
443736
444434
479747
494038
501743
474498
443700
397531
357489
313848
277128
240422
209158
178954
152704
127518
105167
84397
66937.7
52796.2
42632.1
35558.6
30744.8
27126.3
24095.7
21265.7
18518.7
15925.1
13555.2
11562
9926.37
8699.9
7744.88
7090.29
6594.8
6333.11
6198.72
6323.08
6705.07
7582.92
9162.74
11668.7
472.166
670.063
989.066
1325.96
1556.54
1633.84
1588.81
1473.53
1323.79
1160.71
1004.35
879.169
800.616
765.658
759.15
767.53
781.973
799.149
817.31
837.213
858.524
883.143
910.451
943.218
980.038
1025.15
1075.53
1138.21
1206.97
1294.02
1387.04
1507.92
1632.45
1801.71
1970.72
2217.31
2457.08
2833.48
3204.29
3862.27
4613.93
6083.65
7995.68
11870.1
17122.6
27787.9
40563.9
60142.4
68063.6
71550.9
72119.1
94042.4
224260
251502
415874
550073
502794
479695
476392
512102
527783
536614
509078
476724
428035
385021
338256
298559
259181
225656
193603
165855
139446
116023
94175.8
75520.6
60060.7
48672.6
40623.8
35136
31067.7
27719.1
24617.4
21588.3
18683.1
15972.3
13643.7
11695.1
10211.3
9043.13
8235.17
7617.71
7283.27
7094.85
7214.09
7606.71
8563.22
10223.2
12927.3
474.218
674.371
994.854
1330.71
1558.64
1634.49
1590.65
1479.07
1334.39
1176.21
1023.15
898.808
819.091
782.332
774.265
781.503
795.07
811.518
829.01
848.319
869.099
893.318
920.356
953.073
990.043
1035.64
1086.76
1150.65
1220.98
1310.3
1406.05
1530.78
1659.75
1835.29
2011.32
2268.24
2519.52
2914.13
3305.05
3996.74
4788.16
6336.65
8361.32
12491.8
18137.7
29688.2
43640.7
65362
74990.6
79162.6
78683.4
99359.8
230899
261863
448584
603378
550362
519127
510468
545811
562485
572259
544383
510433
459205
413160
363214
320459
278333
242469
208498
179192
151517
127019
104151
84398.4
67706
55112.8
46057.8
39853.5
35307.6
31634.4
28272.6
24982.6
21785.1
18740.2
16066.3
13779.6
12006.1
10590.1
9599.23
8834.07
8409.13
8152.26
8260.26
8658.82
9698.62
11439.6
14352.6
476.357
678.858
1000.9
1335.79
1561.09
1635.59
1593.13
1485.56
1346.36
1193.52
1044.08
920.753
839.854
801.157
791.362
797.307
809.865
825.47
842.185
860.798
880.95
904.687
931.38
963.993
1001.08
1047.14
1099.03
1164.2
1236.21
1327.94
1426.64
1555.5
1689.29
1871.64
2055.32
2323.51
2587.4
3001.97
3415.05
4144.02
4979.68
6616
8766.65
13184.9
19273.2
31818.1
47068.5
71123.1
82693
87818.7
86165.2
105276
238100
273536
484628
662064
603219
562420
546878
580960
598143
608629
580345
544760
490979
441854
388675
342798
297861
259601
223654
192734
163744
138145
114281
93502.2
75661.2
61896.2
51815.3
44855.2
39803.2
35798.2
32190.4
28667.9
25209.7
21853.7
18840.4
16202.8
14114.1
12418
11213.8
10273
9737.22
9394.98
9483.45
9881.25
11006.7
12826.8
15954.5
478.588
683.537
1007.24
1341.2
1563.94
1637.2
1596.33
1493.1
1359.84
1212.81
1067.37
945.26
863.182
822.407
810.699
815.178
826.577
841.206
857.017
874.817
894.23
917.384
943.646
976.092
1013.25
1059.77
1112.45
1178.95
1252.72
1347.04
1448.89
1582.22
1721.21
1910.95
2102.95
2383.43
2661.13
3097.53
3535.05
4305.21
5190.1
6924.42
9216.22
13958.6
20545.9
34212.3
50898.9
77492.2
91243.6
97644.3
94698.4
111871
245930
286695
524236
726323
661788
609990
585867
617658
634766
645673
616899
579636
523296
471045
414593
365542
317752
277056
239091
206509
176152
149409
124544
102784
83867.2
68970.9
57853.1
50099
44509.2
40162
36321.5
32599
28921.2
25291.8
21961.8
18975.9
16557.3
14554.6
13108.3
11963
11294
10847.2
10905.4
11293.4
12503.6
14397.8
17739.2
480.916
688.42
1013.87
1347
1567.24
1639.38
1600.33
1501.82
1374.98
1234.29
1093.28
972.62
889.386
846.392
832.57
835.391
845.458
858.956
873.717
890.567
909.11
931.566
957.293
989.492
1026.66
1073.62
1127.09
1194.99
1270.62
1367.69
1472.92
1611.04
1755.67
1953.4
2154.47
2448.32
2741.13
3201.43
3665.86
4481.53
5421.21
7264.91
9715.1
14823.6
21975.4
36910.5
55191.9
84546.1
100721
108770
104434
119237
254458
301537
567639
796268
726452
662270
627713
656039
672379
683355
653980
614992
556093
500676
440919
388658
337991
294840
254831
220548
188773
160835
134942
112216
92278.7
76293.6