/*--------------------------------*- C++ -*----------------------------------*\
| =========                 |                                                 |
| \\      /  F ield         | OpenFOAM: The Open Source CFD Toolbox           |
|  \\    /   O peration     | Version:  2412                                  |
|   \\  /    A nd           | Website:  www.openfoam.com                      |
|    \\/     M anipulation  |                                                 |
\*---------------------------------------------------------------------------*/
FoamFile
{
    version     2.0;
    format      ascii;
    arch        "LSB;label=32;scalar=64";
    class       volScalarField;
    location    "0.4";
    object      k;
}
// * * * * * * * * * * * * * * * * * * * * * * * * * * * * * * * * * * * * * //

dimensions      [0 2 -2 0 0 0 0];

internalField   nonuniform List<scalar> 
13077
(
40.8703
48.7255
60.5287
71.8747
77.9242
77.2232
71.8724
64.8148
58.2531
53.3558
50.4748
49.4029
49.4913
50.1155
50.9099
51.7559
52.601
53.46
54.3185
55.2165
56.134
57.1287
58.1617
59.3155
60.5216
61.9044
63.3419
65.0304
66.7516
68.8205
70.8577
73.3917
75.7803
78.9394
81.7992
85.8444
89.2598
94.5369
99.2924
40.9086
48.802
60.6232
71.9468
77.9565
77.2262
71.8602
64.7911
58.2154
53.3078
50.4249
49.3543
49.4442
50.071
50.8684
51.717
52.5639
53.4238
54.2827
55.1805
56.0974
57.0911
58.1229
59.2749
60.4791
61.8595
63.2944
64.9799
66.6979
68.7629
70.7958
73.3245
75.7067
78.8582
81.7086
85.743
89.1433
94.3997
99.1264
107.605
116.275
130.87
145.099
165.944
181.996
200.192
202.071
211.568
221.697
272.173
322.113
437.226
812.681
895.442
712.853
545.725
423.017
320.714
240.106
181.533
150.059
131.776
121.95
112.343
105.958
99.4068
95.29
91.3259
89.2064
40.9476
48.8794
60.7178
72.0173
77.9857
77.2256
71.8449
64.7654
58.1768
53.2599
50.3755
49.3063
49.3977
50.0269
50.8273
51.6783
52.527
53.3878
54.2471
55.1447
56.0611
57.0537
58.0842
59.2344
60.4367
61.8147
63.2471
64.9294
66.6442
68.7053
70.7339
73.2572
75.6329
78.7768
81.6178
85.6414
89.0264
94.2622
98.9599
107.403
116.04
130.602
144.823
165.674
181.806
200.122
202.166
211.556
221.528
271.983
322.362
439.731
820.065
900.004
716.251
549.32
426.713
324.604
243.691
184.387
151.611
132.692
122.47
112.763
106.245
99.653
95.4519
91.4561
89.2804
87.0333
85.6977
84.1831
83.2833
82.1458
80.9888
79.0671
76.5345
73.3674
70.1645
67.2652
64.9986
63.4262
62.4858
62.0069
61.7266
61.5359
61.257
61.0346
60.7199
60.6188
60.4145
60.6295
60.6869
61.5058
62.1348
64.0505
66.5776
72.4393
79.0752
40.9875
48.958
60.8129
72.0866
78.012
77.2212
71.8262
64.7373
58.1371
53.2116
50.3264
49.2588
49.3516
49.9831
50.7863
51.6399
52.4903
53.352
54.2117
55.109
56.0248
57.0163
58.0455
59.1939
60.3943
61.7698
63.1996
64.8788
66.5902
68.6474
70.6716
73.1895
75.5588
78.6949
81.5265
85.5392
88.909
94.1241
98.7925
107.199
115.801
130.328
144.539
165.392
181.605
200.043
202.275
211.564
221.372
271.783
322.592
442.198
827.331
904.254
719.518
552.922
430.513
328.701
247.568
187.591
153.423
133.779
123.094
113.264
106.593
99.9503
95.6508
91.6158
89.3746
87.1035
85.7383
84.217
83.3084
82.177
81.03
79.1234
76.6001
73.4324
70.2175
67.3006
65.0162
63.4292
62.4792
61.9959
61.717
61.5306
61.2583
61.0412
60.7325
60.6354
60.437
60.6571
60.7217
61.5525
62.1943
64.1613
66.7402
72.784
79.5127
41.0283
49.0378
60.9086
72.1549
78.0352
77.213
71.8038
64.7067
58.096
53.163
50.2777
49.2119
49.306
49.9396
50.7456
51.6016
52.4537
53.3163
54.1762
55.0733
55.9884
56.9788
58.0067
59.1533
60.3517
61.7247
63.1519
64.828
66.536
68.5892
70.6089
73.1215
75.4841
78.6125
81.4345
85.4363
88.791
93.9852
98.6243
106.993
115.559
130.048
144.245
165.097
181.391
199.956
202.394
211.59
221.228
271.568
322.8
444.622
834.467
908.188
722.654
556.53
434.418
333.012
251.755
191.178
155.539
135.075
123.845
113.863
107.013
100.309
95.8941
91.8103
89.4928
87.1922
85.7914
84.2606
83.3408
82.215
81.0783
79.1884
76.6762
73.5092
70.2823
67.3464
65.0419
63.4382
62.4766
61.9874
61.7089
61.5263
61.2608
61.049
60.7465
60.6534
60.461
60.6857
60.757
61.5988
62.2527
64.2693
66.8965
73.1151
79.9223
41.0701
49.1191
61.0052
72.2222
78.0556
77.2009
71.7778
64.6735
58.0537
53.1141
50.2292
49.1655
49.2609
49.8963
50.7051
51.5634
52.4172
53.2806
54.1408
55.0376
55.952
56.9413
57.9678
59.1126
60.309
61.6795
63.104
64.7769
66.4815
68.5306
70.5457
73.0529
75.409
78.5296
81.342
85.3327
88.6723
93.8457
98.4553
106.786
115.314
129.762
143.943
164.788
181.161
199.857
202.523
211.636
221.098
271.341
322.984
446.999
841.464
911.8
725.664
560.148
438.431
337.547
256.271
195.188
158.011
136.621
124.751
114.581
107.522
100.742
96.1917
92.0473
89.6401
87.3025
85.8593
84.3154
83.3813
82.2603
81.1341
79.2627
76.7637
73.599
70.36
67.4035
65.0768
63.4538
62.4785
61.9816
61.7024
61.5233
61.2644
61.0581
60.7621
60.6728
60.4863
60.7154
60.7931
61.6449
62.3099
64.3743
67.0463
73.4311
80.3024
41.1129
49.2018
61.1027
72.2886
78.0731
77.1848
71.7482
64.6377
58.01
53.0649
50.1811
49.1197
49.2162
49.8534
50.6647
51.5253
52.3807
53.2449
54.1054
55.0018
55.9156
56.9037
57.9289
59.0717
60.2661
61.6341
63.0559
64.7255
66.4266
68.4716
70.4822
72.984
75.3334
78.4461
81.2489
85.2286
88.5531
93.7057
98.2857
106.577
115.066
129.469
143.631
164.465
180.917
199.745
202.662
211.703
220.982
271.1
323.145
449.323
848.313
915.089
728.551
563.779
442.558
342.317
261.136
199.661
160.895
138.472
125.849
115.445
108.14
101.267
96.5565
92.3364
89.8234
87.4392
85.9449
84.3833
83.4314
82.314
81.1984
79.3473
76.8638
73.7032
70.4521
67.4734
65.1218
63.477
62.4855
61.979
61.698
61.5215
61.2693
61.0686
60.7793
60.6939
60.5134
60.7463
60.8303
61.691
62.3662
64.4764
67.1891
73.7308
80.6518
41.1568
49.2861
61.2011
72.3541
78.0877
77.1649
71.7149
64.5995
57.9653
53.0155
50.1335
49.0746
49.1721
49.8109
50.6246
51.4874
52.3444
53.2093
54.07
54.9661
55.8791
56.8661
57.8898
59.0308
60.2231
61.5885
63.0075
64.6739
66.3715
68.4124
70.4183
72.9146
75.2574
78.3623
81.1554
85.1239
88.4335
93.5653
98.1158
106.367
114.815
129.169
143.309
164.127
180.656
199.62
202.81
211.793
220.883
270.846
323.28
451.592
855.006
918.054
731.321
567.429
446.803
347.33
266.371
204.634
164.256
140.69
127.184
116.489
108.893
101.905
97.0049
92.6902
90.0513
87.6084
86.0523
84.4672
83.4929
82.3774
81.2722
79.4434
76.978
73.8235
70.5604
67.5579
65.1786
63.5089
62.4985
61.9803
61.6959
61.5214
61.2758
61.0808
60.7984
60.717
60.5425
60.7789
60.8689
61.7375
62.422
64.5757
67.3249
74.0133
80.9692
41.2018
49.372
61.3006
72.4188
78.0994
77.1411
71.6781
64.559
57.9195
52.9662
50.0864
49.0303
49.1285
49.7687
50.5847
51.4497
52.3082
53.1738
54.0347
54.9303
55.8427
56.8284
57.8507
58.9898
60.18
61.5428
62.959
64.6221
66.3161
68.3529
70.3541
72.8449
75.181
78.2781
81.0615
85.0189
88.3138
93.4247
97.9457
106.155
114.561
128.863
142.978
163.773
180.379
199.48
202.968
211.907
220.803
270.58
323.392
453.802
861.537
920.696
733.983
571.102
451.172
352.597
271.992
210.143
168.16
143.348
128.812
117.757
109.813
102.683
97.558
93.1249
90.3352
87.818
86.1867
84.5705
83.568
82.4521
81.357
79.5525
77.1079
73.9619
70.6872
67.6589
65.2488
63.5508
62.5184
61.9861
61.6967
61.5234
61.2842
61.095
60.8198
60.7424
60.5741
60.8136
60.9093
61.7848
62.4777
64.6725
67.4535
74.2776
81.2538
41.2479
49.4595
61.4012
72.4828
78.1082
77.1135
71.6377
64.5161
57.8729
52.917
50.0401
48.9867
49.0856
49.7269
50.5451
51.4121
52.2721
53.1384
53.9994
54.8946
55.8062
56.7906
57.8115
58.9486
60.1367
61.497
62.9104
64.5701
66.2605
68.2931
70.2897
72.775
75.1044
78.1936
80.9674
84.9137
88.1939
93.2842
97.7759
105.943
114.305
128.551
142.637
163.404
180.084
199.325
203.134
212.048
220.743
270.303
323.478
455.949
867.897
923.016
736.545
574.806
455.669
358.124
278.015
216.219
172.674
146.53
130.8
119.299
110.94
103.637
98.2427
93.6613
90.6897
88.0782
86.3549
84.6977
83.6598
82.5404
81.4545
79.6763
77.2555
74.1207
70.8349
67.779
65.3345
63.6044
62.5466
61.9973
61.701
61.5278
61.2948
61.1115
60.8439
60.7705
60.6086
60.8509
60.9522
61.8334
62.5338
64.7669
67.5751
74.523
81.5049
41.2953
49.5489
61.503
72.5461
78.1143
77.0821
71.594
64.4712
57.8256
52.868
49.9945
48.9441
49.0434
49.6855
50.5057
51.3747
52.2361
53.1031
53.9642
54.8589
55.7697
56.7529
57.7723
58.9075
60.0934
61.451
62.8616
64.518
66.2048
68.2332
70.225
72.7049
75.0277
78.109
80.8732
84.8084
88.0743
93.1439
97.6065
105.73
114.047
128.233
142.287
163.019
179.771
199.152
203.308
212.216
220.705
270.015
323.54
458.031
874.08
925.018
739.016
578.548
460.297
363.918
284.451
222.888
177.864
150.323
133.228
121.18
112.324
104.807
99.093
94.3262
91.1338
88.4025
86.5655
84.8546
83.7719
82.6447
81.5666
79.8166
77.423
74.3025
71.0063
67.9209
65.4381
63.6716
62.5844
62.015
61.7096
61.5353
61.3081
61.1308
60.8712
60.8019
60.6465
60.8913
60.9981
61.8841
62.591
64.8595
67.6898
74.749
81.7223
41.3439
49.64
61.6061
72.6087
78.1176
77.047
71.5469
64.4243
57.7779
52.8196
49.95
48.9026
49.002
49.6446
50.4666
51.3375
52.2003
53.0678
53.929
54.8232
55.7332
56.7152
57.733
58.8663
60.0501
61.405
62.8128
64.4658
66.1489
68.1731
70.1602
72.6347
74.9508
78.0244
80.7791
84.7032
87.955
93.0042
97.438
105.517
113.787
127.909
141.928
162.618
179.44
198.962
203.489
212.415
220.694
269.718
323.578
460.043
880.079
926.707
741.409
582.338
465.061
369.98
291.309
230.166
183.789
154.821
136.188
123.477
114.025
106.245
100.152
95.1535
91.692
88.8081
86.8301
85.0487
83.9093
82.7685
81.6959
79.9758
77.6128
74.5102
71.2048
68.0878
65.5626
63.7547
62.6336
62.0404
61.7234
61.5465
61.3246
61.1534
60.902
60.8371
60.6885
60.9355
61.0477
61.9373
62.65
64.9507
67.798
74.9551
81.9058
41.3938
49.7331
61.7105
72.6709
78.1183
77.0082
71.4966
64.3755
57.7298
52.7719
49.9065
48.8622
48.9614
49.6043
50.4279
51.3006
52.1647
53.0328
53.894
54.7876
55.6968
56.6774
57.6938
58.825
60.0067
61.359
62.7639
64.4136
66.093
68.113
70.0954
72.5644
74.8741
77.9399
80.6851
84.5983
87.8364
92.8652
97.2706
105.304
113.526
127.58
141.559
162.201
179.089
198.752
203.677
212.646
220.711
269.413
323.591
461.983
885.889
928.089
743.737
586.185
469.963
376.313
298.594
238.061
190.495
160.111
139.779
126.276
116.113
108.014
101.471
96.1861
92.3961
89.3178
87.1637
85.2899
84.078
82.9156
81.8452
80.1565
77.8278
74.7472
71.4341
68.2835
65.7112
63.8564
62.6963
62.0751
61.7436
61.5623
61.3451
61.1798
60.9371
60.8766
60.7352
60.9843
61.1019
61.9941
62.7116
65.0412
67.9002
75.1413
82.056
41.4451
49.8282
61.8164
72.7326
78.1165
76.9659
71.4432
64.3252
57.6818
52.7252
49.8645
48.823
48.9218
49.5645
50.3895
51.2639
52.1292
52.9978
53.8591
54.7521
55.6604
56.6397
57.6546
58.7838
59.9633
61.313
62.715
64.3613
66.037
68.0529
70.0306
72.4943
74.7975
77.8556
80.5916
84.4938
87.7185
92.7274
97.1047
105.092
113.264
127.245
141.182
161.767
178.719
198.521
203.871
212.911
220.76
269.1
323.579
463.847
891.504
929.173
746.013
590.103
475.007
382.915
306.303
246.573
198.013
166.271
144.107
129.674
118.672
110.183
103.112
97.4768
93.2862
89.9607
87.5857
85.5909
84.2861
83.0913
82.0182
80.3618
78.0711
75.0171
71.6984
68.5125
65.888
63.98
62.775
62.121
61.7714
61.5837
61.3703
61.2109
60.9771
60.9214
60.7875
61.0384
61.1615
62.0552
62.7769
65.1317
67.9971
75.3077
82.1734
41.4979
49.9255
61.924
72.794
78.1121
76.9202
71.387
64.2735
57.634
52.6797
49.8239
48.7853
48.8832
49.5255
50.3516
51.2276
52.094
52.9631
53.8243
54.7167
55.6241
56.6021
57.6154
58.7427
59.92
61.267
62.6661
64.3091
65.9812
67.9928
69.9659
72.4243
74.7211
77.7718
80.4986
84.39
87.6018
92.5909
96.9408
104.88
113.003
126.907
140.797
161.317
178.328
198.269
204.069
213.212
220.844
268.783
323.544
465.632
896.918
929.967
748.255
594.105
480.195
389.782
314.432
255.69
206.358
173.359
149.271
133.772
121.788
112.831
105.149
99.0886
94.4124
90.7741
88.1217
85.9684
84.544
83.3024
82.2193
80.5952
78.3465
75.3241
72.0025
68.7798
66.0977
64.1295
62.8727
62.1803
61.8086
61.6118
61.4012
61.2472
61.0229
60.9721
60.8462
61.0988
61.2276
62.1218
62.8468
65.2233
68.0897
75.4547
82.2594
41.5521
50.025
62.0332
72.8552
78.1054
76.8712
71.328
64.2207
57.5868
52.6358
49.7852
48.7492
48.8458
49.4871
50.3141
51.1915
52.0591
52.9285
53.7896
54.6815
55.5879
56.5645
57.5763
58.7015
59.8767
61.2211
62.6173
64.257
65.9254
67.933
69.9014
72.3546
74.6452
77.6884
80.4065
84.2871
87.4865
92.4561
96.7793
104.671
112.741
126.564
140.404
160.85
177.917
197.993
204.27
213.552
220.967
268.461
323.486
467.334
902.127
930.483
750.48
598.208
485.53
396.909
322.971
265.393
215.525
181.407
155.355
138.667
125.555
116.039
107.658
101.094
95.8355
91.8052
88.8044
86.4443
84.8655
83.5572
82.4541
80.8612
78.658
75.6731
72.352
69.0914
66.346
64.3096
62.9931
62.2557
61.8572
61.6482
61.4389
61.29
61.0753
61.0297
60.9123
61.1666
61.3012
62.195
62.9228
65.317
68.1791
75.5831
82.3156
41.6079
50.1268
62.1444
72.9164
78.0965
76.8191
71.2665
64.167
57.5405
52.5937
49.7485
48.7149
48.8097
49.4496
50.2772
51.1559
52.0245
52.8942
53.7552
54.6464
55.5518
56.5271
57.5372
58.6605
59.8335
61.1753
62.5687
64.2051
65.8698
67.8733
69.8372
72.2853
74.5699
77.6058
80.3152
84.1854
87.3729
92.3234
96.6207
104.464
112.481
126.218
140.003
160.367
177.485
197.693
204.472
213.932
221.134
268.138
323.405
468.952
907.125
930.733
752.709
602.433
491.017
404.286
331.904
275.653
225.489
190.42
162.422
144.441
130.058
119.883
110.717
103.569
97.6257
93.1111
89.6757
87.047
85.2683
83.8668
82.7296
81.1647
79.0103
76.0693
72.7531
69.454
66.6395
64.5259
63.1408
62.3508
61.9197
61.6948
61.4848
61.3403
61.1355
61.0953
60.987
61.2429
61.3839
62.2763
63.0063
65.4143
68.2668
75.6941
82.3442
41.6653
50.231
62.2575
72.9776
78.0855
76.764
71.2027
64.1128
57.4954
52.5539
49.7141
48.6826
48.775
49.4129
50.2408
51.1206
51.9901
52.8602
53.7209
54.6114
55.5158
56.4897
57.4983
58.6196
59.7904
61.1297
62.5202
64.1534
65.8145
67.814
69.7735
72.2166
74.4953
77.5241
80.2253
84.0851
87.2614
92.1932
96.4653
104.259
112.223
125.87
139.595
159.867
177.032
197.367
204.673
214.354
221.35
267.815
323.302
470.482
911.909
930.731
754.963
606.801
496.66
411.903
341.211
286.434
236.21
200.371
170.5
151.152
135.372
124.43
114.4
106.589
99.8591
94.7587
90.7872
87.8127
85.7757
84.2456
83.0546
81.512
79.409
76.5185
73.2129
69.8757
66.986
64.7856
63.3213
62.4696
61.9992
61.7537
61.5408
61.3997
61.2049
61.1704
61.0718
61.3293
61.4771
62.3672
63.0992
65.5167
68.3548
75.7893
82.3483
41.7244
50.3378
62.3727
73.0391
78.0727
76.7062
71.1369
64.0584
57.452
52.5167
49.6824
48.6524
48.7419
49.3773
50.2051
51.0858
51.9562
52.8264
53.687
54.5767
55.4801
56.4525
57.4595
58.5788
59.7475
61.0842
62.4719
64.1019
65.7595
67.7551
69.7102
72.1485
74.4216
77.4436
80.1367
83.9865
87.1522
92.0659
96.3139
104.058
111.967
125.519
139.181
159.352
176.558
197.014
204.872
214.821
221.619
267.496
323.177
471.921
916.476
930.493
757.267
611.341
502.464
419.746
350.867
297.693
247.634
211.21
179.583
158.827
141.545
129.728
118.759
110.22
102.611
96.8213
92.2003
88.7868
86.4175
84.7119
83.4402
81.9105
79.8599
77.0274
73.739
70.3652
67.3947
65.0967
63.5413
62.6173
62.0995
61.828
61.609
61.4699
61.285
61.2563
61.1682
61.4274
61.5826
62.4695
63.2033
65.6263
68.4452
75.8709
82.3313
41.7853
50.4474
62.4902
73.101
78.0581
76.6459
71.0694
64.0041
57.4108
52.4826
49.6537
48.6248
48.7105
49.3428
50.1702
51.0515
51.9226
52.793
53.6532
54.5421
55.4445
56.4155
57.4209
58.5382
59.7047
61.039
62.424
64.0508
65.705
67.6967
69.6477
72.0813
74.3491
77.3643
80.0499
83.8899
87.0458
91.9419
96.1668
103.86
111.714
125.167
138.761
158.821
176.063
196.634
205.067
215.333
221.949
267.184
323.033
473.267
920.822
930.036
759.647
616.082
508.439
427.803
360.844
309.384
259.696
222.864
189.631
167.459
148.601
135.798
123.828
114.506
105.948
99.3726
93.9841
90.0245
87.2318
85.2898
83.9006
82.3692
80.3702
77.6028
74.3398
70.9327
67.8762
65.4693
63.8093
62.8004
62.2255
61.9211
61.6921
61.5531
61.3778
61.355
61.278
61.5391
61.7024
62.5855
63.321
65.7452
68.5409
75.9415
82.2977
41.8481
50.5597
62.6103
73.1636
78.0421
76.5834
71.0005
63.9505
57.3722
52.4521
49.6284
48.5999
48.6812
49.3096
50.136
51.0179
51.8895
52.76
53.6199
54.5079
55.4091
56.3787
57.3825
58.4978
59.6622
60.994
62.3763
64.0002
65.651
67.639
69.5859
72.015
74.2777
77.2866
79.9652
83.7957
86.9426
91.8217
96.0248
103.668
111.466
124.815
138.337
158.276
175.547
196.225
205.256
215.893
222.345
266.884
322.869
474.516
924.945
929.378
762.13
621.06
514.593
436.058
371.11
321.457
272.327
235.249
200.576
177.006
156.531
142.641
129.611
119.462
109.913
102.477
96.2105
91.5892
88.2652
86.0093
84.4538
82.899
80.9475
78.2525
75.0244
71.5892
68.4429
65.9152
64.1351
63.0268
62.3832
62.0376
61.7935
61.652
61.4857
61.4688
61.4035
61.6667
61.8389
62.7175
63.4551
65.8763
68.645
76.0046
82.2528
41.9128
50.6751
62.733
73.2271
78.025
76.5189
70.9305
63.8979
57.3368
52.4258
49.6069
48.578
48.6539
49.2778
50.1028
50.9848
51.857
52.7274
53.5868
54.4739
55.374
56.3421
57.3443
58.4577
59.62
60.9494
62.3291
63.95
65.5975
67.582
69.5251
71.9499
74.2079
77.2107
79.8827
83.7041
86.843
91.7058
95.8884
103.481
111.223
124.463
137.91
157.717
175.012
195.789
205.436
216.501
222.816
266.599
322.689
475.667
928.843
928.54
764.747
626.317
520.942
444.496
381.631
333.858
285.454
248.276
212.331
187.403
165.298
150.23
136.088
125.077
114.523
106.178
98.9456
93.549
89.5731
86.9083
85.1223
83.513
81.6006
78.9842
75.8022
72.3465
69.1085
66.4483
64.5312
63.3064
62.58
62.183
61.9176
61.7701
61.6116
61.6002
61.5474
61.8127
61.9949
62.8684
63.6087
66.0227
68.7615
76.0644
82.2028
41.9795
50.7936
62.8585
73.2916
78.0068
76.4528
70.86
63.8469
57.3052
52.4042
49.5898
48.5595
48.6292
49.2477
50.0707
50.9526
51.825
52.6953
53.5542
54.4403
55.3392
56.3058
57.3064
58.4178
59.5781
60.9051
62.2823
63.9004
65.5448
67.5259
69.4653
71.8861
74.1398
77.1369
79.8028
83.6156
86.7474
91.5948
95.7584
103.3
110.985
124.113
137.481
157.145
174.457
195.323
205.606
217.158
223.37
266.338
322.493
476.718
932.516
927.542
767.531
631.898
527.503
453.103
392.371
346.535
299.001
261.851
224.801
198.566
174.845
158.523
143.22
131.315
119.763
110.493
102.24
95.97
91.2177
88.0325
85.9344
84.2274
82.3393
79.8059
76.6824
73.2171
69.8881
67.0844
65.0121
63.6511
62.8254
62.3645
62.0697
61.9115
61.7591
61.7525
61.7127
61.9804
62.1737
63.0416
63.7855
66.1883
68.895
76.1257
82.1552
42.0484
50.9154
62.9871
73.3575
77.9881
76.3855
70.7893
63.798
57.278
52.388
49.5775
48.5449
48.6072
49.2193
50.0397
50.9212
51.7937
52.6637
53.522
54.4071
55.3048
56.2698
57.2687
58.3782
59.5366
60.8613
62.2361
63.8514
65.4929
67.4708
69.4068
71.8239
74.0737
77.0654
79.726
83.5306
86.6564
91.4891
95.6354
103.126
110.755
123.767
137.05
156.562
173.885
194.83
205.765
217.865
224.017
266.106
322.284
477.666
935.964
926.407
770.514
637.854
534.3
461.868
403.294
359.433
312.897
275.884
237.885
210.401
185.098
167.465
150.957
138.125
125.593
115.407
106.118
98.907
93.2629
89.4349
86.9247
85.0616
83.1745
80.7254
77.6737
74.2129
70.7975
67.8416
65.5952
64.0759
63.1311
62.591
62.2566
62.0817
61.9326
61.9298
61.9034
62.1734
62.3791
63.2409
63.9897
66.3773
69.0509
76.1945
82.1186
42.1195
51.0407
63.119
73.4251
77.969
76.3173
70.7189
63.7519
57.2559
52.3779
49.5707
48.5345
48.5882
49.193
50.0101
50.8908
51.7632
52.6327
53.4904
54.3743
55.2707
56.2342
57.2314
58.3391
59.4955
60.818
62.1904
63.8032
65.442
67.4168
69.3498
71.7634
74.0097
76.9965
79.6525
83.4495
86.5705
91.3895
95.5202
102.961
110.534
123.425
136.621
155.97
173.297
194.31
205.911
218.622
224.765
265.913
322.066
478.51
939.185
925.16
773.733
644.245
541.36
470.779
414.362
372.5
327.071
290.291
251.485
222.816
195.977
176.994
159.244
145.449
131.958
120.88
110.577
102.394
95.7675
91.1735
88.1342
86.0392
84.1182
81.7501
78.7836
75.3451
71.8529
68.7394
66.3005
64.5984
63.5114
62.8735
62.4869
62.2872
62.1377
62.1367
62.1237
62.396
62.6154
63.471
64.2262
66.5951
69.2355
76.2779
82.1029
42.1929
51.1696
63.2544
73.4946
77.9501
76.2487
70.6494
63.7091
57.2398
52.3747
49.57
48.5289
48.5726
49.169
49.9821
50.8615
51.7335
52.6025
53.4593
54.3421
55.2371
56.1989
57.1945
58.3003
59.4548
60.7752
62.1455
63.7559
65.3921
67.3641
69.2943
71.7048
73.9483
76.9306
79.5827
83.3727
86.4901
91.2966
95.4136
102.804
110.322
123.09
136.194
155.37
172.694
193.766
206.045
219.43
225.627
265.77
321.842
479.248
942.182
923.825
777.225
651.131
548.72
479.831
425.539
385.684
341.455
304.991
265.51
235.718
207.402
187.048
168.026
153.233
138.797
126.857
115.585
106.439
98.7764
93.3058
89.6097
87.1881
85.1841
82.8863
80.0175
76.6226
73.069
69.7981
67.1503
65.2396
63.9841
63.2261
62.7713
62.5366
62.3813
62.3794
62.3794
62.6536
62.888
63.737
64.5009
66.8476
69.4562
76.3841
82.1196
42.2687
51.3023
63.3936
73.5664
77.9316
76.1803
70.5814
63.6705
57.2304
52.3793
49.5763
48.5285
48.5609
49.1476
49.9558
50.8334
51.7048
52.5731
53.4289
54.3104
55.204
56.1641
57.1581
58.2619
59.4146
60.7331
62.1013
63.7094
65.3433
67.3128
69.2406
71.6484
73.8895
76.868
79.517
83.3007
86.416
91.211
95.3165
102.658
110.121
122.762
135.772
154.765
172.081
193.199
206.166
220.289
226.614
265.691
321.618
479.88
944.957
922.43
781.027
658.581
556.423
489.024
436.794
398.936
355.985
319.91
279.874
249.024
219.292
197.564
177.252
161.427
146.052
133.277
121.094
111.021
102.313
95.8828
91.4017
88.5411
86.3875
84.1394
81.378
78.0509
74.4582
71.0372
68.1687
66.0237
64.5702
63.666
63.1235
62.8404
62.672
62.6649
62.6769
62.9522
63.2029
64.0452
64.8203
67.1418
69.7214
76.5227
82.1817
42.3472
51.4391
63.5369
73.6407
77.914
76.1124
70.5155
63.6368
57.2288
52.3927
49.5902
48.5342
48.5535
49.1292
49.9316
50.8068
51.6772
52.5445
53.3993
54.2793
55.1714
56.1298
57.1221
58.2241
59.375
60.6916
62.0579
63.664
65.2959
67.2631
69.1889
71.5944
73.8338
76.809
79.4559
83.2341
86.3487
91.1336
95.2298
102.524
109.933
122.444
135.357
154.159
171.459
192.616
206.277
221.2
227.739
265.692
321.398
480.405
947.513
921.001
785.177
666.667
564.521
498.362
448.095
412.208
370.602
334.982
294.501
262.657
231.576
208.482
186.875
169.988
153.675
140.083
127.045
116.101
106.376
98.9413
93.5603
90.1355
87.7464
85.514
82.8643
79.6308
76.0281
72.4736
69.3796
66.9772
65.2947
64.214
63.5601
63.2118
63.0203
63.0025
63.0242
63.2994
63.5676
64.4028
65.1921
67.4859
70.0409
76.7047
82.3036
42.4283
51.5802
63.6845
73.7182
77.8978
76.0458
70.4525
63.6089
57.2358
52.4158
49.6127
48.5465
48.551
49.1142
49.9097
50.7819
51.6509
52.5171
53.3706
54.249
55.1394
56.096
57.0867
58.1868
59.3361
60.6508
62.0154
63.6197
65.2498
67.2151
69.1394
71.5431
73.7815
76.754
79.3999
83.1734
86.2889
91.0651
95.1545
102.402
109.759
122.138
134.952
153.554
170.835
192.02
206.38
222.164
229.014
265.792
321.192
480.822
949.852
919.569
789.713
675.463
573.072
507.859
459.416
425.456
385.249
350.142
309.321
276.546
244.185
219.746
196.849
178.88
161.625
147.227
133.382
121.628
110.943
102.499
96.1299
92.0119
89.2818
87.0141
84.4718
81.357
77.7798
74.1188
70.8052
68.1281
66.1857
64.895
64.1016
63.6672
63.4397
63.403
63.4312
63.7039
63.9903
64.8181
65.6251
67.8889
70.4256
76.9426
82.5015
42.5122
51.7257
63.8368
73.799
77.8836
75.981
70.393
63.5876
57.2525
52.4499
49.6449
48.5662
48.5539
49.1029
49.8904
50.7589
51.6262
52.4908
53.3428
54.2195
55.1082
56.0629
57.0518
58.1502
59.2978
60.6109
61.9739
63.5766
65.2053
67.1691
69.0923
71.4947
73.7328
76.7035
79.3493
83.1192
86.2373
91.0064
95.0917
102.294
109.601
121.847
134.559
152.955
170.212
191.419
206.483
223.185
230.455
266.014
321.01
481.134
951.98
918.164
794.671
685.042
582.145
517.536
470.737
438.639
399.872
365.334
324.27
290.629
257.058
231.307
207.135
188.072
169.87
154.672
140.058
127.547
115.972
106.55
99.1437
94.2117
91.0188
88.6447
86.1928
83.2182
79.7062
75.9767
72.4624
69.5031
67.2737
65.738
64.7728
64.2268
63.9464
63.88
63.9093
64.1763
64.4812
65.3008
66.1292
68.3615
70.8879
77.2502
82.7925
42.599
51.8759
63.994
73.8836
77.8717
75.9187
70.3379
63.5739
57.2801
52.4961
49.6879
48.5944
48.5631
49.0961
49.8742
50.7381
51.603
52.4659
53.3162
54.1909
55.0778
56.0305
57.0176
58.1142
59.2602
60.5718
61.9335
63.5349
65.1625
67.1251
69.0478
71.4494
73.6881
76.6577
79.3047
83.0721
86.1946
90.9584
95.0424
102.202
109.46
121.573
134.183
152.367
169.597
190.823
206.592
224.266
232.076
266.387
320.863
481.341
953.902
916.818
800.087
695.476
591.818
527.424
482.043
451.723
414.423
380.504
339.291
304.85
270.142
243.115
217.695
197.536
178.385
162.389
147.034
133.812
121.419
111.075
102.619
96.7742
92.987
90.4136
88.0181
85.197
81.7916
78.0412
74.3598
71.1249
68.5894
66.7747
65.6026
64.9148
64.5603
64.4499
64.4728
64.729
65.0516
65.8619
66.7157
68.9153
71.4411
77.6431
83.1948
42.689
52.0311
64.1565
73.9726
77.863
75.8596
70.2881
63.569
57.3198
52.5558
49.7429
48.6319
48.5792
49.0942
49.8614
50.7199
51.5819
52.4425
53.2909
54.1635
55.0483
55.9989
56.9842
58.0789
59.2235
60.5336
61.8943
63.4946
65.1215
67.0834
69.0062
71.4077
73.6478
76.6172
79.2667
83.0327
86.1616
90.9221
95.0078
102.127
109.34
121.318
133.827
151.796
168.997
190.244
206.719
225.416
233.894
266.943
320.769
481.445
955.624
915.564
805.99
706.829
602.173
537.565
493.328
464.676
428.857
395.603
354.331
319.159
283.385
255.128
228.495
207.247
187.15
170.359
154.282
140.385
127.237
116.037
106.558
99.7318
95.2198
92.3334
89.9389
87.2718
84.0114
80.2947
76.4946
73.0082
70.1604
68.0385
66.6234
65.7597
65.3053
65.1323
65.1381
65.3764
65.715
66.5141
67.3971
69.5634
72.0998
78.1377
83.7269
42.7821
52.1915
64.3247
74.0664
77.8579
75.8046
70.2446
63.5739
57.373
52.6306
49.8114
48.6801
48.6032
49.098
49.8527
50.7045
51.563
52.4209
53.267
54.1372
55.0198
55.9682
56.9516
58.0444
59.1876
60.4964
61.8562
63.4558
65.0825
67.0441
68.9676
71.3697
73.6122
76.5824
79.2358
83.0018
86.1392
90.8986
94.9894
102.071
109.242
121.088
133.495
151.248
168.423
189.695
206.88
226.646
235.925
267.719
320.746
481.452
957.154
914.44
812.409
719.159
613.301
548.012
504.593
477.472
443.132
410.586
369.341
333.508
296.744
267.307
239.502
217.182
196.149
178.566
161.784
147.236
133.388
121.397
110.945
103.106
97.7526
94.4237
91.9504
89.4198
86.3347
82.7089
78.8511
75.1563
72.0079
69.5612
67.87
66.7939
66.2092
65.9506
65.925
66.1356
66.4863
67.2714
68.1871
70.3196
72.8791
78.7513
84.4067
42.8787
52.3574
64.4989
74.1655
77.8572
75.7545
70.2083
63.5898
57.4411
52.7219
49.8949
48.7401
48.6361
49.1083
49.8486
50.6926
51.5467
52.4014
53.2448
54.1123
54.9925
55.9385
56.9199
58.0108
59.1527
60.4603
61.8196
63.4187
65.0456
67.0074
68.9324
71.3357
73.5817
76.5537
79.2126
82.98
86.1283
90.8889
94.9884
102.035
109.168
120.884
133.192
150.732
167.884
189.195
207.093
227.973
238.188
268.76
320.819
481.365
958.5
913.481
819.364
732.504
625.292
558.829
515.851
490.094
457.212
425.409
384.277
347.856
310.178
279.616
250.686
227.319
205.367
187.002
169.528
154.349
139.84
127.118
115.755
106.907
100.62
96.7118
94.0555
91.6207
88.7273
85.2463
81.4005
77.5582
74.1421
71.3697
69.377
68.0524
67.3035
66.9317
66.8561
67.026
67.3827
68.1493
69.1005
71.1989
73.7943
79.5013
85.2508
42.9788
52.529
64.6795
74.2705
77.8616
75.7102
70.1803
63.618
57.5255
52.8315
49.9951
48.8135
48.6793
49.126
49.8498
50.6845
51.5334
52.3843
53.2246
54.089
54.9665
55.9098
56.8892
57.9782
59.1188
60.4254
61.7843
63.3833
65.0109
66.9735
68.9007
71.3062
73.5568
76.5318
79.1977
82.9682
86.1298
90.8943
95.0062
102.022
109.121
120.711
132.924
150.256
167.394
188.765
207.385
229.42
240.706
270.114
321.021
481.194
959.671
912.729
826.873
746.889
638.238
570.09
527.122
502.53
471.065
440.034
399.096
362.162
323.649
292.021
262.018
237.639
214.792
195.659
177.507
161.712
146.572
133.166
120.958
111.131
103.85
99.2318
96.2673
93.8615
91.1564
87.865
84.1032
80.189
76.5598
73.4815
71.1755
69.5712
68.6228
68.1057
67.9569
68.0691
68.4227
69.1646
70.1525
72.2164
74.8601
80.4043
86.2726
43.0826
52.7067
64.867
74.382
77.8719
75.6727
70.1619
63.6598
57.6279
52.9613
50.114
48.9021
48.7339
49.1523
49.8573
50.681
51.5235
52.3699
53.2065
54.0675
54.942
55.8825
56.8596
57.9466
59.086
60.3917
61.7505
63.3497
64.9786
66.9426
68.8728
71.2813
73.5377
76.517
79.1917
82.9672
86.1447
90.916
95.0445
102.035
109.105
120.573
132.697
149.831
166.968
188.433
207.786
231.018
243.503
271.838
321.389
480.947
960.678
912.227
834.945
762.315
652.224
581.881
538.442
514.778
484.665
454.427
413.759
376.39
337.122
304.491
273.474
248.123
224.412
204.534
185.719
169.321
153.572
139.517
126.523
115.763
107.465
102.022
98.6106
96.1402
93.5957
90.5232
86.9132
83.0112
79.2428
75.902
73.289
71.3836
70.2021
69.505
69.2553
69.2887
69.6266
70.335
71.3587
73.387
76.0902
81.4755
87.4821
43.1903
52.8907
65.0617
74.5006
77.889
75.6429
70.1542
63.7168
57.75
53.1133
50.2537
49.0076
48.8018
49.1883
49.8718
50.6828
51.5177
52.3587
53.1911
54.0481
54.9192
55.8566
56.8313
57.9162
59.0544
60.3593
61.7183
63.3181
64.9487
66.9148
68.8489
71.2614
73.525
76.51
79.1955
82.9778
86.174
90.9553
95.105
102.074
109.122
120.475
132.517
149.469
166.624
188.23
208.336
232.808
246.608
273.991
321.971
480.637
961.533
912.019
843.583
778.757
667.328
594.296
549.854
526.843
497.991
468.555
428.23
390.505
350.566
316.997
285.028
258.755
234.219
213.623
194.166
177.177
160.831
146.152
132.422
120.783
111.473
105.119
101.121
98.4689
96.0303
93.1852
89.7842
85.9801
82.1603
78.6224
75.7306
73.5176
72.0751
71.1629
70.7808
70.71
71.0153
71.6786
72.7344
74.7248
77.4957
82.7271
88.8842
43.3021
53.0815
65.2642
74.627
77.9136
75.6221
70.1584
63.7904
57.8937
53.2897
50.4165
49.1323
48.8845
49.2356
49.8946
50.6907
51.5166
52.3512
53.1786
54.0311
54.8984
55.8323
56.8043
57.8871
59.024
60.3283
61.6878
63.2885
64.9216
66.8904
68.8294
71.2469
73.5191
76.5113
79.2095
83.0009
86.219
91.0138
95.1893
102.143
109.175
120.423
132.393
149.184
166.382
188.193
209.083
234.842
250.057
276.64
322.822
480.282
962.248
912.156
852.785
796.169
683.608
607.432
561.416
538.742
511.029
482.388
442.476
404.475
363.949
329.515
296.66
269.521
244.208
222.929
202.852
185.283
168.35
153.062
138.631
126.166
115.873
108.555
103.842
100.875
98.4602
95.8268
92.6755
89.0494
85.273
81.6214
78.5009
75.992
74.271
73.1112
72.5629
72.3586
72.61
73.213
74.2936
76.2421
79.0851
84.1678
90.4787
43.4182
53.2792
65.4749
74.7618
77.9468
75.6113
70.1761
63.8823
58.0608
53.4928
50.605
49.2786
48.9843
49.2957
49.927
50.7057
51.5209
52.348