/*--------------------------------*- C++ -*----------------------------------*\
| =========                 |                                                 |
| \\      /  F ield         | OpenFOAM: The Open Source CFD Toolbox           |
|  \\    /   O peration     | Version:  2412                                  |
|   \\  /    A nd           | Website:  www.openfoam.com                      |
|    \\/     M anipulation  |                                                 |
\*---------------------------------------------------------------------------*/
FoamFile
{
    version     2.0;
    format      ascii;
    arch        "LSB;label=32;scalar=64";
    class       volScalarField;
    location    "0.4";
    object      nut;
}
// * * * * * * * * * * * * * * * * * * * * * * * * * * * * * * * * * * * * * //

dimensions      [0 2 -1 0 0 0 0];

internalField   nonuniform List<scalar> 
13077
(
0.348162
0.367824
0.381341
0.379596
0.359254
0.325732
0.289437
0.259706
0.243413
0.245771
0.267822
0.30038
0.328079
0.344342
0.351947
0.355226
0.356711
0.357616
0.358325
0.359082
0.359841
0.360748
0.361651
0.362744
0.363785
0.365074
0.366222
0.367705
0.368892
0.370545
0.371687
0.373568
0.374701
0.377066
0.378276
0.381124
0.382037
0.385551
0.387509
0.348231
0.367853
0.381286
0.379452
0.359046
0.325491
0.289164
0.259363
0.242953
0.245192
0.267208
0.299863
0.327716
0.344091
0.351751
0.355051
0.356542
0.357448
0.358155
0.358907
0.35966
0.360559
0.361452
0.362531
0.363556
0.364824
0.365948
0.367402
0.368558
0.370171
0.371271
0.3731
0.37418
0.376479
0.377626
0.380387
0.381212
0.384593
0.38643
0.392162
0.395249
0.401003
0.401983
0.402249
0.393681
0.379854
0.360357
0.365138
0.383629
0.420574
0.437544
0.450079
0.487548
0.46318
0.377767
0.280047
0.213508
0.166023
0.143378
0.13677
0.157645
0.174226
0.193295
0.196952
0.206023
0.207211
0.215391
0.219878
0.230544
0.348303
0.367884
0.381233
0.379309
0.358837
0.325251
0.288894
0.259026
0.2425
0.244616
0.266589
0.299331
0.327332
0.343819
0.351535
0.354856
0.356355
0.357261
0.357966
0.358715
0.359462
0.360352
0.361234
0.362298
0.363306
0.364551
0.36565
0.367073
0.368194
0.369764
0.370819
0.37259
0.373613
0.37584
0.376919
0.379585
0.380315
0.383553
0.385259
0.390787
0.393695
0.399102
0.39975
0.399339
0.390145
0.375149
0.354821
0.358726
0.377744
0.415891
0.434055
0.448325
0.487879
0.463551
0.375811
0.277339
0.210752
0.162778
0.138641
0.129095
0.145804
0.160124
0.1784
0.182168
0.191365
0.192823
0.20128
0.20612
0.217242
0.225911
0.237956
0.248315
0.260674
0.270733
0.279676
0.284677
0.287278
0.287901
0.289017
0.291064
0.294596
0.299125
0.304143
0.308855
0.312572
0.315465
0.317439
0.319359
0.320699
0.322441
0.323316
0.3249
0.325174
0.326182
0.324157
0.318293
0.300871
0.266726
0.227496
0.348376
0.367919
0.381182
0.379167
0.358628
0.325011
0.288625
0.258692
0.242051
0.244042
0.265964
0.298783
0.326925
0.343523
0.351296
0.35464
0.356146
0.357054
0.357759
0.358504
0.359245
0.360126
0.360996
0.362044
0.363033
0.364254
0.365326
0.366713
0.367797
0.36932
0.370325
0.372034
0.372995
0.375144
0.376149
0.378711
0.379341
0.382423
0.383989
0.389296
0.392011
0.397047
0.397338
0.396213
0.386364
0.370158
0.348971
0.351919
0.37142
0.410803
0.430243
0.446373
0.4881
0.463732
0.373556
0.274367
0.20781
0.159432
0.133929
0.121684
0.13433
0.146251
0.163462
0.167238
0.176426
0.178105
0.186747
0.191893
0.203394
0.212572
0.225277
0.236366
0.249555
0.260489
0.270326
0.276108
0.279337
0.280391
0.281809
0.284099
0.287896
0.292739
0.298133
0.30326
0.307389
0.310657
0.312943
0.315119
0.31666
0.318569
0.319564
0.321235
0.321533
0.322518
0.32034
0.314225
0.296432
0.262385
0.223681
0.348452
0.367956
0.381133
0.379026
0.358418
0.32477
0.288357
0.258362
0.241607
0.243471
0.265334
0.298218
0.326495
0.343201
0.351031
0.3544
0.355915
0.356825
0.357529
0.35827
0.359006
0.359877
0.360736
0.361767
0.362735
0.36393
0.364971
0.366321
0.367365
0.368836
0.369787
0.371428
0.372322
0.374386
0.375311
0.377761
0.378281
0.381197
0.382612
0.387682
0.390188
0.394827
0.394739
0.392859
0.382327
0.364876
0.342806
0.344719
0.364649
0.405291
0.42609
0.444209
0.488202
0.463711
0.370989
0.271126
0.204686
0.155997
0.129269
0.114596
0.123353
0.132795
0.14868
0.152349
0.161381
0.163221
0.171935
0.177327
0.189106
0.198727
0.21202
0.223796
0.237779
0.24958
0.260318
0.266907
0.270792
0.272296
0.274025
0.276561
0.280626
0.285791
0.291576
0.297142
0.301715
0.30539
0.308017
0.310473
0.312235
0.314326
0.315451
0.317219
0.317545
0.318508
0.31618
0.30983
0.291715
0.257862
0.219745
0.348529
0.367995
0.381087
0.378884
0.358206
0.324527
0.28809
0.258034
0.241168
0.242901
0.264697
0.297633
0.326037
0.34285
0.350738
0.354132
0.355657
0.356571
0.357275
0.358013
0.358743
0.359604
0.36045
0.361463
0.36241
0.363575
0.364585
0.365894
0.366893
0.368308
0.369201
0.370769
0.37159
0.37356
0.374399
0.376728
0.377131
0.379867
0.381121
0.385935
0.388218
0.392431
0.39194
0.389268
0.378026
0.359299
0.336329
0.337128
0.357421
0.399333
0.421573
0.441817
0.488171
0.463475
0.368095
0.267611
0.201382
0.152487
0.124688
0.107878
0.112985
0.119931
0.134255
0.137701
0.146421
0.148351
0.15701
0.162568
0.174503
0.184485
0.19827
0.21067
0.225392
0.238033
0.249668
0.25708
0.261643
0.263614
0.265661
0.26844
0.272772
0.278261
0.284449
0.290476
0.295523
0.299637
0.302636
0.305398
0.3074
0.309688
0.310956
0.31283
0.313188
0.314135
0.31166
0.305093
0.286712
0.253151
0.215678
0.34861
0.368038
0.381042
0.378743
0.357992
0.324282
0.287822
0.257709
0.240732
0.242332
0.26405
0.297026
0.325548
0.342465
0.350412
0.353833
0.35537
0.356288
0.356993
0.357729
0.358453
0.359305
0.360137
0.36113
0.362054
0.363189
0.364163
0.365428
0.366378
0.367734
0.368563
0.370051
0.370793
0.372663
0.373408
0.375606
0.375883
0.378426
0.379507
0.384045
0.386089
0.389849
0.388932
0.385428
0.373454
0.353426
0.329545
0.329154
0.349732
0.392913
0.416674
0.439182
0.487997
0.46301
0.364861
0.263817
0.197904
0.148914
0.120209
0.10157
0.103322
0.107819
0.120388
0.123494
0.131749
0.133691
0.142156
0.147787
0.159734
0.169972
0.184131
0.197068
0.21245
0.225888
0.238398
0.24664
0.251896
0.254349
0.256716
0.259735
0.264324
0.270135
0.276733
0.28324
0.288787
0.293373
0.296774
0.299868
0.30213
0.304633
0.306056
0.308045
0.308442
0.309377
0.306761
0.300001
0.281412
0.248245
0.211473
0.348692
0.368083
0.381001
0.378601
0.357776
0.324035
0.287554
0.257386
0.240298
0.241761
0.263391
0.296392
0.325024
0.342043
0.35005
0.353499
0.35505
0.355974
0.356681
0.357415
0.358134
0.358975
0.359794
0.360766
0.361665
0.362766
0.363703
0.36492
0.365818
0.367108
0.367869
0.36927
0.369927
0.371688
0.372331
0.374387
0.37453
0.376865
0.37776
0.382004
0.383792
0.38707
0.385703
0.38133
0.368602
0.347255
0.322459
0.320807
0.341581
0.386013
0.411372
0.436287
0.487668
0.462302
0.361274
0.259741
0.194257
0.145296
0.115856
0.0956992
0.0944334
0.0965951
0.107268
0.109927
0.117571
0.119445
0.12757
0.133168
0.144967
0.155337
0.169725
0.183092
0.199032
0.213199
0.226547
0.235612
0.24157
0.244515
0.247201
0.250449
0.255284
0.261408
0.268414
0.275413
0.281485
0.286572
0.290405
0.293858
0.296403
0.299137
0.300729
0.302843
0.303287
0.304216
0.301467
0.294541
0.275807
0.243138
0.207123
0.348777
0.368132
0.380961
0.37846
0.357558
0.323785
0.287286
0.257065
0.239867
0.241188
0.262717
0.295728
0.324459
0.341579
0.349648
0.353128
0.354693
0.355624
0.356335
0.357068
0.357782
0.358614
0.359417
0.360368
0.36124
0.362305
0.363201
0.364366
0.365208
0.366427
0.367114
0.368421
0.368986
0.370628
0.371162
0.373065
0.373063
0.375176
0.375874
0.379802
0.381317
0.384083
0.382243
0.376966
0.363465
0.340787
0.315083
0.312104
0.332972
0.378619
0.405648
0.433117
0.48717
0.461338
0.357321
0.255381
0.190447
0.141645
0.111648
0.0902827
0.0863668
0.0863625
0.0950605
0.0971823
0.104085
0.105816
0.113456
0.118909
0.130389
0.140747
0.155197
0.168863
0.185232
0.20004
0.214165
0.224035
0.230695
0.234136
0.237137
0.2406
0.24566
0.252079
0.259487
0.266983
0.273599
0.279215
0.28351
0.287347
0.290197
0.29318
0.294954
0.297205
0.297703
0.298633
0.295762
0.288701
0.269892
0.237823
0.20262
0.348864
0.368183
0.380924
0.378318
0.357337
0.323534
0.287017
0.256746
0.239438
0.240611
0.262025
0.29503
0.32385
0.341067
0.3492
0.352713
0.354296
0.355236
0.355952
0.356684
0.357395
0.358216
0.359004
0.359932
0.360775
0.361803
0.362654
0.363763
0.364544
0.365686
0.366293
0.3675
0.367964
0.369479
0.369894
0.371633
0.371476
0.373351
0.373837
0.377428
0.378653
0.380879
0.378541
0.372324
0.358036
0.334026
0.307427
0.303065
0.323917
0.370721
0.399484
0.429653
0.48649
0.4601
0.352991
0.250737
0.186483
0.137976
0.1076
0.0853269
0.0791422
0.0771888
0.0839015
0.0854158
0.0914739
0.0929907
0.100015
0.105208
0.116193
0.126383
0.14071
0.154519
0.171166
0.186502
0.201324
0.211962
0.219313
0.223251
0.226558
0.230216
0.235474
0.242163
0.249955
0.257944
0.265116
0.271284
0.276068
0.280317
0.283492
0.286743
0.288713
0.291112
0.291674
0.292613
0.289633
0.282472
0.263659
0.232294
0.197957
0.348954
0.368238
0.380889
0.378177
0.357115
0.32328
0.286747
0.256427
0.239008
0.240027
0.261313
0.294292
0.323189
0.340503
0.348701
0.35225
0.353853
0.354805
0.355527
0.35626
0.356968
0.357778
0.358552
0.359455
0.360268
0.361254
0.362058
0.363107
0.363822
0.364881
0.365401
0.366499
0.366856
0.368233
0.368521
0.370082
0.369761
0.37138
0.371642
0.374872
0.37579
0.377445
0.374587
0.367399
0.352311
0.326975
0.299509
0.293715
0.314429
0.362311
0.392865
0.42588
0.485616
0.458575
0.348273
0.24581
0.182374
0.134305
0.103728
0.0808281
0.072755
0.0691026
0.0738854
0.0747481
0.0798897
0.0811355
0.0874331
0.0922551
0.102576
0.112433
0.126439
0.140218
0.156968
0.172695
0.188108
0.199463
0.207481
0.21191
0.215509
0.219339
0.22476
0.231684
0.239831
0.2483
0.256032
0.262769
0.268067
0.272751
0.276274
0.279809
0.28199
0.284549
0.285183
0.286143
0.283069
0.275847
0.257104
0.226548
0.193129
0.349047
0.368296
0.380857
0.378035
0.35689
0.323024
0.286477
0.25611
0.238579
0.239436
0.260575
0.293509
0.322472
0.339879
0.348145
0.351734
0.35336
0.354325
0.355055
0.355791
0.356497
0.357298
0.358055
0.358934
0.359714
0.360656
0.36141
0.362393
0.363037
0.364007
0.364434
0.365415
0.365656
0.366885
0.367035
0.368406
0.367908
0.369255
0.369278
0.372125
0.372717
0.373772
0.370371
0.362182
0.346288
0.319642
0.291344
0.284085
0.304532
0.353389
0.385776
0.421782
0.484533
0.456745
0.343158
0.240604
0.178129
0.130644
0.100039
0.0767733
0.0671778
0.062094
0.0650619
0.0652574
0.0694462
0.0703793
0.0758679
0.080223
0.0897258
0.0990856
0.112567
0.126129
0.142786
0.158745
0.174622
0.18662
0.195271
0.200177
0.204052
0.208024
0.213568
0.220681
0.229144
0.238067
0.246352
0.253669
0.259499
0.26464
0.26853
0.272367
0.274774
0.277504
0.278222
0.279212
0.276062
0.268821
0.250227
0.22058
0.188128
0.349143
0.368358
0.380828
0.377894
0.356662
0.322765
0.286205
0.255793
0.238149
0.238834
0.259809
0.292676
0.321691
0.33919
0.347527
0.351158
0.352811
0.353792
0.354533
0.355274
0.355978
0.35677
0.357511
0.358363
0.35911
0.360005
0.360704
0.361618
0.362185
0.363059
0.363386
0.36424
0.364357
0.365426
0.365429
0.366595
0.365909
0.366967
0.366735
0.369176
0.369424
0.369849
0.365885
0.356667
0.339965
0.312036
0.282954
0.274208
0.294253
0.343957
0.378205
0.417342
0.483227
0.454594
0.33764
0.235124
0.173758
0.127006
0.0965408
0.0731418
0.0623645
0.0561193
0.057435
0.0569753
0.0602113
0.060808
0.0654407
0.0692529
0.0778095
0.0865199
0.0992789
0.112428
0.128785
0.144794
0.160985
0.173535
0.182769
0.188132
0.192261
0.196342
0.201961
0.209209
0.217935
0.227273
0.236091
0.243988
0.250365
0.25598
0.260256
0.264409
0.267056
0.26997
0.270782
0.271814
0.268609
0.261395
0.243027
0.214387
0.182953
0.349241
0.368423
0.380801
0.377752
0.356432
0.322503
0.285932
0.255475
0.237716
0.23822
0.25901
0.291785
0.320838
0.338426
0.346837
0.350516
0.352199
0.353199
0.353954
0.354701
0.355406
0.356189
0.356915
0.357739
0.35845
0.359296
0.359937
0.360776
0.361261
0.362032
0.362251
0.36297
0.362953
0.36385
0.363695
0.364642
0.363757
0.364506
0.364005
0.366015
0.365901
0.365667
0.361119
0.35085
0.333343
0.304167
0.274361
0.264124
0.283628
0.334023
0.370146
0.412545
0.481683
0.452106
0.331715
0.229379
0.169274
0.123402
0.0932339
0.0699074
0.0582553
0.0511066
0.0509661
0.0498881
0.052205
0.0524593
0.056227
0.0594464
0.0669653
0.0748943
0.0867487
0.0992916
0.115132
0.130997
0.147329
0.16032
0.170074
0.175865
0.180224
0.184379
0.190017
0.197336
0.20626
0.215959
0.225278
0.233744
0.240673
0.246776
0.251453
0.255936
0.258835
0.261943
0.262861
0.263949
0.260711
0.253571
0.235509
0.20797
0.177598
0.349343
0.368492
0.380777
0.37761
0.356199
0.322238
0.285657
0.255157
0.23728
0.237592
0.258174
0.290831
0.319906
0.337581
0.34607
0.3498
0.351517
0.352541
0.353313
0.354069
0.354776
0.355551
0.356262
0.357058
0.357731
0.358525
0.359103
0.359862
0.36026
0.36092
0.361024
0.361597
0.361437
0.36215
0.361826
0.362539
0.361442
0.361863
0.361077
0.362632
0.362138
0.361216
0.356065
0.344726
0.326422
0.296048
0.26559
0.253874
0.272697
0.323604
0.361594
0.407376
0.479887
0.449262
0.32538
0.223379
0.164688
0.11984
0.0901174
0.0670395
0.0547813
0.0469649
0.045581
0.043941
0.0454004
0.0453221
0.0482523
0.0508588
0.0572909
0.0643371
0.0751325
0.086887
0.101999
0.117513
0.133799
0.1471
0.157295
0.16348
0.168039
0.17223
0.177832
0.185149
0.194193
0.204184
0.213956
0.222965
0.230443
0.237039
0.242129
0.246953
0.250116
0.253428
0.254465
0.255622
0.252374
0.245358
0.227679
0.20133
0.172065
0.349448
0.368565
0.380756
0.377468
0.355963
0.32197
0.285381
0.254838
0.236839
0.236945
0.257295
0.289806
0.318886
0.336645
0.345215
0.349002
0.350759
0.351811
0.352603
0.35337
0.354082
0.354851
0.355546
0.356314
0.356948
0.357686
0.358198
0.358872
0.359176
0.359717
0.359698
0.360115
0.359803
0.360319
0.359814
0.360277
0.358955
0.35903
0.357943
0.359018
0.358125
0.356488
0.350718
0.338294
0.319208
0.287694
0.256667
0.243502
0.26151
0.312721
0.352549
0.401821
0.477824
0.446047
0.318638
0.217138
0.160011
0.116329
0.0871869
0.0645049
0.0518698
0.0435918
0.0411788
0.0390464
0.0397305
0.0393418
0.0414927
0.043496
0.0488382
0.054938
0.0645584
0.0753649
0.0895493
0.104504
0.120544
0.134009
0.144553
0.151086
0.155817
0.160007
0.16551
0.172747
0.181822
0.19202
0.202181
0.211694
0.219705
0.226793
0.232302
0.237474
0.240911
0.244435
0.245602
0.246842
0.243612
0.236769
0.21955
0.194471
0.166353
0.349555
0.368641
0.380737
0.377325
0.355725
0.321698
0.285102
0.254518
0.236392
0.236278
0.256369
0.288701
0.317768
0.335608
0.344264
0.348114
0.349916
0.351
0.351816
0.352599
0.353317
0.354083
0.354763
0.355501
0.356095
0.356774
0.357217
0.3578
0.358004
0.358419
0.358268
0.358519
0.358043
0.358349
0.357651
0.357848
0.356288
0.355997
0.354593
0.355164
0.353854
0.351477
0.345073
0.331554
0.311705
0.279122
0.24762
0.233057
0.250118
0.301404
0.343015
0.395868
0.475478
0.442441
0.311493
0.210673
0.155257
0.112875
0.0844352
0.0622697
0.0494477
0.0408816
0.0376429
0.035094
0.0350968
0.0344279
0.0358805
0.0373169
0.0416102
0.046742
0.055118
0.0648495
0.0779318
0.0921274
0.107716
0.121185
0.131972
0.138803
0.143673
0.147824
0.15317
0.160244
0.169252
0.179559
0.190025
0.199987
0.208502
0.216071
0.221998
0.227521
0.231239
0.234983
0.236292
0.237628
0.234443
0.227822
0.211136
0.1874
0.160466
0.349666
0.368721
0.380721
0.377182
0.355483
0.321423
0.284821
0.254194
0.235937
0.235588
0.255388
0.287509
0.316542
0.33446
0.343206
0.347126
0.348979
0.3501
0.350946
0.351747
0.352476
0.353239
0.353907
0.354615
0.355167
0.355785
0.356155
0.356641
0.356738
0.357018
0.356727
0.356801
0.356151
0.356232
0.35533
0.355245
0.353433
0.352757
0.351019
0.351062
0.349318
0.346175
0.339124
0.324506
0.303922
0.27035
0.238477
0.222588
0.23858
0.289689
0.333003
0.389505
0.472834
0.438428
0.303956
0.204002
0.150438
0.109481
0.0818529
0.0603001
0.0474455
0.0387318
0.0348509
0.0319615
0.0313809
0.030466
0.0313138
0.0322397
0.0355629
0.0397474
0.0468604
0.0554317
0.0672721
0.0805258
0.0954626
0.108767
0.11968
0.126749
0.131725
0.135805
0.140936
0.147764
0.156601
0.166906
0.17758
0.187917
0.196892
0.204919
0.211257
0.217128
0.221131
0.225098
0.22656
0.228005
0.224895
0.218544
0.202459
0.180128
0.154412
0.349781
0.368805
0.380707
0.377038
0.355237
0.321144
0.284537
0.253868
0.235473
0.234871
0.254349
0.286221
0.315197
0.333188
0.342031
0.346026
0.347938
0.349102
0.349983
0.350808
0.351551
0.352314
0.35297
0.353649
0.354159
0.354713
0.355005
0.355389
0.355373
0.35551
0.355069
0.354954
0.35412
0.353963
0.352843
0.352459
0.350382
0.3493
0.347214
0.346705
0.34451
0.340579
0.332871
0.317154
0.295868
0.261398
0.22927
0.212142
0.226959
0.277622
0.322528
0.382723
0.469876
0.43399
0.296041
0.19715
0.145567
0.106151
0.0794292
0.0585636
0.0457985
0.0370477
0.0326832
0.0295244
0.0284558
0.0273289
0.0276684
0.0281525
0.0306123
0.0339079
0.0397898
0.0471626
0.0576656
0.0698227
0.0839193
0.0968875
0.107801
0.115042
0.120091
0.124072
0.128937
0.135438
0.143997
0.154179
0.164947
0.175569
0.184946
0.193395
0.200128
0.206338
0.210625
0.214816
0.216441
0.218007
0.215001
0.208966
0.193545
0.172669
0.1482
0.349898
0.368893
0.380697
0.376894
0.354988
0.320861
0.284249
0.253537
0.234999
0.234123
0.253243
0.284826
0.313721
0.331781
0.340725
0.344805
0.346782
0.347997
0.348918
0.349772
0.350534
0.3513
0.351947
0.352597
0.353063
0.35355
0.353761
0.354038
0.353902
0.353887
0.353288
0.352973
0.351943
0.351533
0.350182
0.349483
0.347128
0.345621
0.343171
0.342085
0.339424
0.334684
0.326312
0.309506
0.287556
0.252289
0.220027
0.20177
0.215317
0.265255
0.311613
0.375515
0.46659
0.429111
0.287768
0.190142
0.140657
0.102885
0.0771519
0.0570293
0.0444488
0.0357448
0.0310291
0.027664
0.0261951
0.0248885
0.0248107
0.0249258
0.0266445
0.0291388
0.0338665
0.0400514
0.0491714
0.0601142
0.073205
0.0856687
0.0964521
0.103795
0.108884
0.112742
0.1173
0.123401
0.131576
0.14151
0.152247
0.163045
0.172748
0.181571
0.188673
0.195204
0.19977
0.204183
0.20598
0.207677
0.204804
0.199127
0.184426
0.165042
0.141844
0.35002
0.368985
0.380688
0.376749
0.354735
0.320573
0.283958
0.253202
0.234512
0.233341
0.252065
0.283314
0.312102
0.330225
0.339277
0.34345
0.3455
0.346773
0.347742
0.34863
0.349416
0.35019
0.35083
0.351452
0.351874
0.352292
0.352419
0.352582
0.35232
0.352144
0.351377
0.35085
0.349613
0.348936
0.347341
0.34631
0.343663
0.341712
0.338882
0.337199
0.334056
0.328491
0.31945
0.301567
0.279001
0.243047
0.210778
0.191518
0.203724
0.252645
0.300286
0.367875
0.46296
0.423776
0.279159
0.183008
0.135723
0.0996831
0.0750079
0.0556688
0.0433453
0.0347502
0.0297905
0.026273
0.0244812
0.0230231
0.022609
0.0224246
0.0235282
0.0253272
0.0290127
0.0340657
0.0418092
0.0514644
0.0634148
0.0752171
0.0857397
0.0931089
0.0982057
0.101926
0.106145
0.111784
0.119477
0.129036
0.139606
0.15046
0.160398
0.169531
0.176964
0.183792
0.188628
0.193254
0.195229
0.197066
0.194355
0.189072
0.175139
0.157271
0.135364
0.350144
0.369081
0.380682
0.376603
0.354478
0.32028
0.283661
0.25286
0.23401
0.232521
0.250808
0.281676
0.310325
0.328505
0.337671
0.341946
0.34408
0.345419
0.346443
0.347373
0.348188
0.348974
0.34961
0.350206
0.350584
0.350932
0.35097
0.351014
0.35062
0.350274
0.34933
0.34858
0.347124
0.346165
0.344314
0.342933
0.339981
0.337567
0.334344
0.332043
0.328404
0.321998
0.312289
0.29335
0.270218
0.233697
0.201554
0.181432
0.192245
0.23986
0.288583
0.359803
0.458972
0.41797
0.270247
0.175782
0.130778
0.096545
0.072984
0.0544561
0.0424437
0.0340023
0.0288836
0.025258
0.0232094
0.0216243
0.0209419
0.0205199
0.0211272
0.0223438
0.0251215
0.0291362
0.0355588
0.0439014
0.0546157
0.0656184
0.0757531
0.0830701
0.0881436
0.0917175
0.0955801
0.10071
0.107835
0.116897
0.127163
0.137939
0.148006
0.157371
0.165087
0.172177
0.177266
0.182094
0.184251
0.186234
0.183711
0.178854
0.16573
0.149383
0.128782
0.350273
0.369181
0.380678
0.376455
0.354217
0.319982
0.28336
0.252511
0.233491
0.231659
0.249464
0.279901
0.308379
0.326608
0.335893
0.34028
0.342508
0.343923
0.345011
0.34599
0.346841
0.347643
0.34828
0.348852
0.349187
0.349462
0.34941
0.34933
0.348796
0.348272
0.347142
0.346156
0.34447
0.343214
0.341093
0.339347
0.336077
0.333184
0.329553
0.326614
0.322468
0.31521
0.304835
0.284869
0.261229
0.224264
0.192383
0.171555
0.180946
0.226969
0.276545
0.351299
0.45461
0.41168
0.261065
0.168498
0.125836
0.0934687
0.0710668
0.0533677
0.0417063
0.0334501
0.0282387
0.0245403
0.02229
0.0205985
0.019703
0.0190949
0.0193113
0.0200551
0.0220681
0.0251645
0.0303639
0.0374168
0.0468433
0.0569335
0.0665624
0.0737486
0.0787683
0.0821944
0.0856973
0.0902885
0.0967753
0.105231
0.115058
0.125616
0.135692
0.145199
0.153136
0.160447
0.165764
0.170778
0.173116
0.175247
0.172938
0.168531
0.156247
0.141414
0.122127
0.350405
0.369284
0.380676
0.376306
0.353951
0.319679
0.283053
0.252154
0.232953
0.230751
0.248025
0.277976
0.306247
0.324516
0.333926
0.338437
0.34077
0.34227
0.343431
0.344468
0.345363
0.346189
0.346831
0.347381
0.347675
0.347877
0.347731
0.347521
0.346842
0.346131
0.344805
0.343572
0.341644
0.340078
0.337675
0.335546
0.331947
0.328557
0.324507
0.320914
0.31625
0.308131
0.297098
0.276138
0.252053
0.214776
0.183294
0.161924
0.169891
0.214049
0.264221
0.342367
0.449862
0.404895
0.251656
0.161197
0.120913
0.090452
0.0692434
0.0523825
0.0411011
0.0330516
0.0277986
0.0240556
0.0216485
0.019868
0.0188031
0.01805
0.0179638
0.0183336
0.0197212
0.022033
0.0261379
0.031968
0.0401004
0.0491965
0.0582156
0.0651939
0.0701301
0.0734131
0.0765667
0.0806095
0.0864104
0.0941679
0.103427
0.113626
0.123584
0.133129
0.141217
0.148695
0.154211
0.159386
0.161903
0.164183
0.162109
0.158169
0.146747
0.133402
0.115432
0.35054
0.369391
0.380676
0.376155
0.353679
0.319369
0.28274
0.251788
0.232393
0.229792
0.246485
0.275891
0.303915
0.322212
0.331755
0.3364
0.338849
0.340447
0.341692
0.342796
0.343744
0.3446
0.345253
0.345786
0.34604
0.346168
0.345926
0.345583
0.344752
0.343845
0.342315
0.340824
0.338643
0.336751
0.334053
0.331528
0.327587
0.323685
0.319205
0.314943
0.309752
0.300771
0.289089
0.267177
0.242716
0.205262
0.174313
0.152575
0.159138
0.201179
0.251667
0.333017
0.444715
0.397607
0.242063
0.153919
0.116025
0.0874926
0.0675012
0.0514819
0.0406009
0.032773
0.0275175
0.0237519
0.0212244
0.0193697
0.0181694
0.0173032
0.0169852
0.0170651
0.0179543
0.0196162
0.022773
0.0274826
0.0343585
0.0424138
0.0507375
0.0574348
0.0622583
0.0654072
0.0682348
0.0717397
0.0768308
0.0838198
0.0923995
0.102104
0.111812
0.121282
0.12944
0.137023
0.1427
0.148009
0.150698
0.15312
0.1513
0.147836
0.13729
0.125392
0.108735
0.350679
0.369502
0.380678
0.376001
0.353402
0.319052
0.282419
0.25141
0.23181
0.228778
0.244836
0.273633
0.301368
0.319681
0.329361
0.334152
0.336731
0.338438
0.339779
0.34096
0.341971
0.342865
0.343537
0.344056
0.344273
0.344328
0.343989
0.343507
0.34252
0.341409
0.339666
0.337905
0.33546
0.333229
0.330225
0.327288
0.322995
0.318569
0.313649
0.308705
0.302983
0.293139
0.280823
0.258009
0.233244
0.195752
0.165465
0.143537
0.148743
0.188439
0.238942
0.32326
0.439157
0.389811
0.232338
0.146707
0.111188
0.0845886
0.0658285
0.0506494
0.0401833
0.0325866
0.0273589
0.023588
0.0209693
0.019053
0.017744
0.0167888
0.0162941
0.0161526
0.0166525
0.0177905
0.0201503
0.0238661
0.0295611
0.0365648
0.0441298
0.0504795
0.0551615
0.0581876
0.0607229
0.0637195
0.0681025
0.0742802
0.0820908
0.091176
0.100504
0.109782
0.117919
0.125537
0.131331
0.13674
0.139588
0.142145
0.140594
0.137608
0.127939
0.117433
0.10208
0.350822
0.369617
0.38068
0.375845
0.353119
0.318727
0.282089
0.251019
0.231199
0.227704
0.24307
0.271193
0.29859
0.316902
0.326725
0.331675
0.334397
0.336227
0.337676
0.338947
0.340031
0.340973
0.341671
0.342183
0.342367
0.342349
0.341912
0.341289
0.340139
0.338817
0.336853
0.334811
0.332092
0.32951
0.326188
0.322825
0.31817
0.313209
0.307842
0.302209
0.295951
0.28525
0.272319
0.248658
0.223666
0.186275
0.156776
0.134834
0.138752
0.175912
0.226113
0.313114
0.433178
0.381504
0.222534
0.139603
0.106419
0.0817381
0.0642144
0.0498706
0.0398293
0.0324702
0.0272936
0.0235311
0.0208451
0.0188781
0.0174813
0.0164555
0.0158262
0.015517
0.0157174
0.0164424
0.0181495
0.0210103
0.0256293
0.0316054
0.0383727
0.0443166
0.0488285
0.0517438
0.0540275
0.0565618
0.0602634
0.0656161
0.0725947
0.0809562
0.0897806
0.0987481
0.106768
0.114346
0.120206
0.125675
0.128667
0.131346
0.130073
0.127559
0.118763
0.109578
0.0955128
0.350969
0.369734
0.380684
0.375685
0.352828
0.318395
0.281751
0.250614
0.230558
0.226565
0.241181
0.268558
0.295566
0.313859
0.323828
0.328949
0.331829
0.333796
0.335368
0.336741
0.337911
0.338912
0.339645
0.340157
0.340312
0.340224
0.339689
0.338921
0.337605
0.336065
0.333872
0.331538
0.328536
0.32559
0.321939
0.318139
0.313115
0.30761
0.30179
0.295461
0.288668
0.27712
0.263598
0.239152
0.214012
0.176862
0.148268
0.126487
0.129207
0.163676
0.213252
0.302601
0.426769
0.37269
0.212708
0.132652
0.101736
0.0789403
0.0626493
0.049133
0.0395231
0.0324059
0.0272987
0.0235558
0.0208217
0.0188135
0.0173458
0.0162635
0.0155314
0.0150958
0.0150682
0.015473
0.0166574
0.0188025
0.0224695
0.0274719
0.0334274
0.0389181
0.0432321
0.0460465
0.0481229
0.0502532
0.0533223
0.0578662
0.0639804
0.0715383
0.0797504
0.0882933
0.0960982
0.103557
0.109426
0.114912
0.118027
0.120811
0.11982
0.117764
0.109828
0.101883
0.0890831
0.351119
0.369855
0.380687
0.375522
0.352531
0.318053
0.281401
0.250193
0.229885
0.225357
0.23916
0.265718
0.29228
0.310533
0.320651
0.325955
0.329008
0.331127
0.332837
0.334327
0.335596
0.336667
0.337447
0.337966
0.3381
0.337944
0.337312
0.336398
0.334912
0.333147
0.330718
0.328084
0.324789
0.321468
0.317479
0.313232
0.307831
0.301775
0.295501
0.288476
0.281149
0.268771
0.254684
0.229523
0.204315
0.167543
0.139962
0.11851
0.12014
0.151809
0.200431
0.291747
0.419923
0.363376
0.202916
0.125894
0.0971576
0.0761951
0.0611242
0.0484255
0.0392514
0.032379
0.027356
0.023642
0.0208756
0.0188347
0.01731
0.0161822
0.0153714
0.0148408
0.0146407
0.0148003
0.0155733
0.0171331
0.0199799
0.0240862
0.02924
0.0342424
0.0383313
0.0410514
0.0429644
0.0447567
0.0472604
0.0510389
0.0562884
0.0629923
0.0705036
0.0785183
0.0860122
0.0932686
0.0990875
0.104543
0.107755
0.110625
0.109917
0.108297
0.1012
0.0944033
0.0828413
0.351273
0.369978
0.38069
0.375354
0.352224
0.317701
0.28104
0.249753
0.229176
0.224076
0.237002
0.262664
0.28872
0.306906
0.317173
0.322673
0.325915
0.328202
0.330066
0.331688
0.333071
0.334227
0.335064
0.335601
0.33572
0.335501
0.334774
0.333713
0.332055
0.330059
0.327388
0.324446
0.32085
0.317144
0.312809
0.308105
0.302323
0.295714
0.288984
0.281265
0.273411
0.260224
0.245605
0.219803
0.19461
0.158352
0.131878
0.110914
0.111575
0.140381
0.187727
0.280584
0.412635
0.353573
0.193217
0.119369
0.0927027
0.0735035
0.0596319
0.0477388
0.0390031
0.0323778
0.0274509
0.0237738
0.0209883
0.0189226
0.0173523
0.0161883
0.0153171
0.0147152
0.0143851
0.0143585
0.0148116
0.015902
0.0180587
0.0213622
0.0257457
0.0302379
0.0340761
0.036704
0.0384937
0.0400163
0.0420338
0.0451136
0.0495288
0.0553605
0.0621081
0.069507
0.0766001
0.0835744
0.0892808
0.0946561
0.0979372
0.100869
0.100439
0.0992281
0.0929434
0.0871966
0.0768374
0.351431
0.370104
0.380692
0.37518
0.351909
0.317338
0.280665
0.249293
0.228428
0.222716
0.234701
0.259386
0.284871
0.30296
0.313375
0.319082
0.322529
0.325002
0.327036
0.328808
0.330321
0.331575
0.332485
0.333049
0.333162
0.332887
0.332069
0.33086
0.329028
0.326798
0.32388
0.320621
0.316718
0.312618
0.307931
0.302764
0.296598
0.289435
0.282253
0.273848
0.265476
0.251507
0.23639
0.210028
0.184934
0.149319
0.124036
0.103706
0.10353
0.129456
0.175217
0.269149
0.404904
0.343302
0.183667
0.113111
0.08839
0.070868
0.0581662
0.047065
0.0387691
0.0323927
0.0275721
0.0239389
0.0211455
0.019062
0.0174563
0.0162636
0.0153464
0.0146914
0.0142638
0.0140964
0.0143027
0.0150221
0.0166097
0.0192112
0.0228733
0.0268466
0.0304112
0.0329437
0.0346437
0.0359623
0.037579
0.040044
0.0436824
0.0486561
0.0546059
0.0613222
0.0679357
0.0745529
0.080085
0.08533
0.0886475
0.0916153
0.0914528
0.0906196
0.0851141
0.0803162
0.0711185
0.351591
0.370231
0.380692
0.375
0.351583
0.316963
0.280275
0.248809
0.227638
0.221275
0.232252
0.255877
0.280721
0.298678
0.309237
0.315162
0.31883
0.321505
0.323728
0.325667
0.327328
0.328698
0.329694
0.3303
0.330418
0.330093
0.329189
0.327834
0.325828
0.32336
0.320191
0.316611
0.312394
0.307894
0.302849
0.297214
0.290664
0.282951
0.275323
0.266244
0.257367
0.242649
0.227074
0.200237
0.175324
0.140476
0.116453
0.0968874
0.0960134
0.119092
0.162978
0.257483
0.396729
0.332585
0.17432
0.107152
0.0842381
0.068292
0.0567222
0.0463974
0.0385417
0.0324158
0.0277102
0.0241273
0.0213358
0.0192412
0.0176088
0.0163943
0.0154427
0.0147486
0.0142481
0.0139746
0.0139916
0.0144204
0.0155461
0.0175469
0.020549
0.0240077
0.0272791
0.0297081
0.0313437
0.0325177
0.0338186
0.035763
0.0387037
0.0428629
0.0480113
0.0540029
0.0600733
0.066267
0.0715657
0.0766314
0.0799504
0.0829267
0.0830167
0.0825257
0.0777617
0.0738108
0.0657267
0.351755
0.370359
0.38069
0.374812
0.351246
0.316574
0.279869
0.248301
0.226802
0.219748
0.22965
0.252132
0.276261
0.294046
0.304741
0.310892
0.314797
0.317693
0.320124
0.322248
0.324077
0.32558
0.32668
0.327341
0.327476
0.327111
0.326127
0.32463
0.32245
0.319743
0.316321
0.312414
0.30788
0.302976
0.297569
0.291465
0.284532
0.276276
0.26821
0.258475
0.24911
0.233682
0.217691
0.190471
0.165819
0.131856
0.109146
0.0904592
0.0890259
0.109334
0.151083
0.245634
0.388116
0.321455
0.165226
0.101514
0.0802645
0.0657805
0.0552964
0.0457304
0.0383143
0.0324407
0.0278578
0.0243312
0.0215503
0.0194508
0.0177997
0.0165698
0.0155931
0.0148711
0.0143167
0.0139636
0.0138355
0.0140381
0.0147933
0.0162893
0.0187003
0.0216602
0.0246234
0.0269367
0.0285241
0.0296032
0.0306683
0.0321892
0.0345257
0.0379387
0.042311
0.0475627
0.0530451
0.058761
0.0637723
0.0686124
0.0718971
0.0748533
0.0751762
0.0749898
0.0709253
0.0677218
0.060697
0.351922
0.370488
0.380683
0.374616
0.350897
0.31617
0.279443
0.247764
0.225917
0.218132
0.226894
0.248147
0.271483
0.289051
0.299869
0.306254
0.310411
0.313545
0.316203
0.318533
0.320549
0.322205
0.323428
0.32416
0.324327
0.323932
0.322876
0.321242
0.318892
0.315946
0.312269
0.308034