/*--------------------------------*- C++ -*----------------------------------*\
| =========                 |                                                 |
| \\      /  F ield         | OpenFOAM: The Open Source CFD Toolbox           |
|  \\    /   O peration     | Version:  2412                                  |
|   \\  /    A nd           | Website:  www.openfoam.com                      |
|    \\/     M anipulation  |                                                 |
\*---------------------------------------------------------------------------*/
FoamFile
{
    version     2.0;
    format      ascii;
    arch        "LSB;label=32;scalar=64";
    class       volScalarField;
    location    "0.4";
    object      p;
}
// * * * * * * * * * * * * * * * * * * * * * * * * * * * * * * * * * * * * * //

dimensions      [0 2 -2 0 0 0 0];

internalField   nonuniform List<scalar> 
13077
(
109964
109807
109691
109430
109261
109002
108846
108643
108510
108332
108189
107987
107815
107576
107376
107089
106861
106513
106257
105829
105543
105009
104696
104019
103687
102816
102480
101343
101032
99525.2
99292.9
97263.7
97199.3
94420.4
94674.2
90800.2
91623.7
86122
87941.7
109981
109822
109704
109439
109269
109008
108850
108646
108513
108335
108193
107991
107819
107581
107380
107094
106866
106518
106262
105834
105548
105015
104702
104026
103693
102824
102486
101352
101039
99535.3
99300.2
97275.1
97206.7
94433.5
94681.5
90815.2
91630.6
86139.1
87947.5
79989.5
83521
71808.9
78448.7
61089
73191.1
47141.1
67789.4
27670.9
59360.7
-5068.56
42672.5
-60736.5
14831.7
-160436
-4981.32
-73884.3
9800.85
-36152.7
15424.6
-12432.8
22521.2
7764.35
30979.7
23436.3
38908.8
35635.3
45850.4
44597.7
51354.2
109999
109836
109717
109449
109277
109013
108855
108649
108516
108338
108197
107996
107823
107585
107384
107099
106870
106524
106267
105840
105554
105021
104708
104033
103700
102832
102493
101361
101046
99545.3
99307.5
97286.6
97214.2
94446.6
94688.9
90830.3
91637.6
86156.4
87953.6
80008.6
83524.8
71828.5
78450.7
61110.9
73199.8
47176.2
67821.6
27733.1
59417.4
-5005.6
42724.4
-60747.5
14787.2
-160989
-5114.75
-73881.6
9782.8
-36151.4
15399.9
-12440.3
22489.8
7751.12
30949.9
23426.7
38887.5
35630.9
45835.6
44594.3
51342.4
51223.7
55806.4
56265.1
59446.5
60129.2
62360.4
63071.1
64672.3
65391.2
66654.4
67460.3
68578.7
69474.6
70458
71358.7
72146.3
72991.5
73552.9
74357.6
74695.1
75523.1
75624.9
76567.5
76378.1
77582.1
76977.7
78713.7
77461
80258.8
77909.1
110016
109851
109731
109459
109285
109019
108859
108653
108519
108342
108201
108000
107828
107589
107389
107103
106875
106529
106271
105846
105559
105027
104714
104040
103706
102839
102500
101369
101053
99555.4
99314.9
97298.1
97221.7
94459.8
94696.3
90845.5
91644.7
86173.9
87959.8
80028
83528.9
71848.6
78453.3
61133.6
73209.4
47212
67854.4
27795.9
59475
-4941.13
42778
-60756.8
14743.9
-161546
-5250.47
-73880.5
9763.21
-36150.5
15375.8
-12446.2
22460.1
7738.86
30920.3
23417.2
38865.8
35626
45820
44590
51329.5
51219.6
55796.4
56261.7
59439.2
60126.7
62355
63068.4
64667
65387
66648.5
67455.5
68573.8
69471.1
70455.6
71357.1
72145.8
72990.7
73553
74356.2
74695
75520.3
75624
76562.6
76376.2
77574.4
76974.6
78703.4
77457.5
80251
77906.5
110034
109866
109745
109470
109294
109025
108864
108656
108522
108345
108204
108004
107832
107594
107393
107108
106879
106534
106276
105851
105565
105034
104720
104047
103712
102847
102507
101378
101060
99565.5
99322.2
97309.6
97229.2
94473.1
94703.8
90860.8
91651.8
86191.5
87966.1
80047.7
83533.3
71869.2
78456.4
61157.1
73219.7
47248.7
67887.9
27859.5
59533.7
-4875.04
42833.3
-60764.4
14701.6
-162107
-5388.46
-73880.8
9742.22
-36150
15352.3
-12450.3
22432.5
7727.98
30891.5
23408
38844.2
35620.9
45803.9
44585.1
51315.9
51214.5
55785.4
56257.3
59431
60123.3
62348.8
63064.9
64661.1
65382.3
66642.2
67450.3
68568.8
69467.4
70452.9
71355.3
72145.1
72989.7
73553
74354.6
74694.7
75517.3
75623.1
76557.6
76374.3
77566.7
76971.5
78693.3
77454.3
80243.4
77904.3
110052
109881
109759
109480
109302
109031
108868
108660
108526
108348
108208
108008
107836
107598
107397
107113
106884
106539
106281
105857
105570
105040
104725
104054
103718
102855
102513
101387
101067
99575.7
99329.7
97321.3
97236.8
94486.5
94711.4
90876.3
91659.1
86209.3
87972.7
80067.7
83538
71890.2
78460
61181.1
73230.7
47286.2
67922.2
27924
59593.6
-4807.09
42890.7
-60770.1
14660.3
-162672
-5528.6
-73882.1
9720.2
-36149.8
15329.5
-12452.5
22407
7718.74
30863.8
23399.5
38822.8
35615.7
45787.4
44579.8
51301.7
51208.7
55773.6
56252.1
59421.9
60119.1
62341.9
63060.9
64654.7
65377.3
66635.7
67445
68563.5
69463.5
70450
71353.2
72144.1
72988.4
73552.7
74352.8
74694.3
75514.3
75622.1
76552.6
76372.4
77559.1
76968.6
78683.3
77451.5
80235.9
77902.6
110070
109896
109773
109490
109311
109037
108873
108663
108529
108352
108212
108012
107840
107603
107402
107117
106889
106544
106286
105863
105575
105046
104731
104061
103725
102863
102520
101396
101075
99586
99337.1
97333
97244.5
94500
94719.1
90891.9
91666.5
86227.3
87979.3
80087.9
83543
71911.5
78463.9
61205.7
73242.3
47324.5
67957.3
27989.6
59655
-4737.21
42950.1
-60773.8
14620.1
-163240
-5670.96
-73884.2
9697.2
-36149.9
15307.3
-12453
22383.8
7711.45
30837.5
23392
38802.1
35610.8
45771
44574.2
51287
51202.4
55761.1
56246.3
59412.1
60114.1
62334.2
63056.2
64647.8
65371.8
66628.8
67439.3
68557.9
69459.3
70446.8
71350.8
72142.8
72986.8
73552.2
74350.9
74693.6
75511
75620.9
76547.4
76370.4
77551.3
76965.6
78673.2
77448.8
80228.3
77901
110088
109912
109787
109501
109320
109043
108877
108667
108532
108355
108216
108017
107844
107607
107406
107122
106893
106549
106291
105868
105581
105053
104737
104068
103731
102871
102527
101405
101082
99596.3
99344.7
97344.8
97252.2
94513.5
94726.8
90907.6
91674
86245.5
87986.2
80108.4
83548.2
71933.3
78468.3
61230.9
73254.7
47363.6
67993.2
28056
59717.6
-4665.33
43011.6
-60775.3
14581
-163813
-5815.61
-73887.3
9673.22
-36150
15286
-12451.5
22363.1
7706.37
30813
23385.9
38782.3
35606.4
45754.8
44568.6
51272.1
51195.7
55748.1
56239.7
59401.5
60108.4
62325.8
63050.9
64640.3
65365.9
66621.5
67433.4
68552.1
69454.8
70443.3
71348.1
72141.3
72985
73551.4
74348.7
74692.8
75507.6
75619.6
76542.1
76368.3
77543.4
76962.7
78663.1
77446.2
80220.6
77899.6
110106
109927
109801
109511
109328
109049
108882
108670
108535
108358
108219
108021
107849
107612
107411
107127
106898
106554
106296
105874
105586
105059
104743
104075
103737
102879
102534
101415
101089
99606.7
99352.3
97356.6
97260
94527.2
94734.7
90923.5
91681.6
86263.9
87993.2
80129.2
83553.6
71955.5
78473.2
61256.8
73267.8
47403.5
68029.7
28123.2
59781.6
-4591.44
43075.4
-60774.6
14543.2
-164389
-5962.62
-73891.4
9648.26
-36150.2
15265.5
-12448.1
22345.1
7703.71
30790.6
23381.4
38763.7
35602.9
45739.1
44563.3
51257.3
51188.8
55734.7
56232.7
59390.3
60102.1
62316.8
63045.1
64632.4
65359.6
66613.9
67427.1
68545.9
69450.1
70439.5
71345.2
72139.4
72982.9
73550.4
74346.2
74691.7
75504
75618.1
76536.6
76366.1
77535.4
76959.7
78652.9
77443.7
80212.8
77898.5
110125
109943
109816
109522
109337
109055
108887
108674
108538
108361
108223
108025
107853
107616
107415
107132
106903
106559
106302
105880
105592
105066
104749
104083
103744
102887
102541
101424
101096
99617.1
99359.9
97368.6
97267.9
94541
94742.6
90939.5
91689.3
86282.5
88000.4
80150.3
83559.4
71978.1
78478.5
61283.4
73281.6
47444.2
68067
28191.2
59846.8
-4515.5
43141.6
-60771.4
14506.8
-164970
-6112.05
-73896.6
9622.36
-36150.4
15245.9
-12442.8
22329.6
7703.61
30770.5
23378.8
38746.7
35600.5
45724.2
44558.5
51242.6
51181.9
55721.1
56225.4
59378.7
60095.2
62307.3
63038.7
64624
65352.9
66606.1
67420.6
68539.5
69445.1
70435.4
71341.9
72137.3
72980.5
73549.1
74343.5
74690.4
75500.2
75616.4
76531
76363.7
77527.3
76956.6
78642.7
77441.3
80204.9
77897.5
110144
109959
109830
109533
109346
109061
108891
108677
108541
108365
108227
108030
107857
107621
107420
107136
106907
106565
106307
105885
105597
105072
104755
104090
103750
102896
102548
101433
101104
99627.6
99367.6
97380.7
97275.9
94555
94750.7
90955.7
91697.3
86301.4
88007.9
80171.7
83565.5
72001.2
78484.4
61310.6
73296.2
47485.7
68104.9
28259.8
59913.1
-4437.51
43210.1
-60765.8
14471.9
-165554
-6263.95
-73902.9
9595.53
-36150.6
15227.4
-12435.6
22316.9
7706.12
30753
23378.3
38731.6
35599.5
45710.4
44554.4
51228.5
51175.3
55707.5
56217.8
59366.6
60087.9
62297.2
63031.9
64615.2
65346
66597.9
67413.9
68532.9
69439.8
70431
71338.3
72134.8
72977.8
73547.5
74340.6
74688.9
75496.1
75614.5
76525.2
76361.3
77519.2
76953.6
78632.5
77439.1
80196.9
77896.8
110163
109975
109845
109543
109355
109067
108896
108681
108544
108368
108231
108034
107862
107625
107424
107141
106912
106570
106312
105891
105603
105078
104761
104097
103757
102904
102555
101442
101111
99638.2
99375.4
97392.8
97283.9
94569
94758.9
90972
91705.3
86320.4
88015.5
80193.5
83572
72024.8
78490.8
61338.5
73311.6
47527.9
68143.4
28328.9
59980.5
-4357.47
43281
-60757.5
14438.6
-166141
-6418.37
-73910.3
9567.82
-36150.6
15209.9
-12426.5
22306.6
7711.21
30738.2
23380
38718.4
35600.1
45697.9
44551.4
51215
51169.1
55694.1
56210.3
59354.4
60080.2
62286.7
63024.6
64606.1
65338.8
66589.6
67407.1
68526.2
69434.3
70426.4
71334.5
72132
72974.8
73545.6
74337.3
74687.1
75491.9
75612.5
76519.3
76358.7
77510.9
76950.6
78622.2
77437.1
80188.8
77896.2
110182
109991
109860
109554
109364
109073
108900
108684
108547
108371
108235
108038
107866
107630
107429
107146
106917
106575
106317
105897
105608
105085
104767
104104
103763
102912
102562
101452
101119
99648.9
99383.3
97405
97292
94583.2
94767.1
90988.5
91713.5
86339.7
88023.4
80215.5
83578.8
72048.9
78497.8
61367.2
73327.8
47570.8
68182.4
28398.4
60048.8
-4275.43
43354.5
-60746.4
14407
-166733
-6575.35
-73918.8
9539.24
-36150.5
15193.4
-12415.7
22298.7
7718.78
30726
23384
38707.4
35602.3
45687
44549.5
51202.6
51163.6
55681.2
56202.9
59342.1
60072.4
62275.9
63017.1
64596.7
65331.4
66581.2
67400.1
68519.3
69428.7
70421.5
71330.4
72128.9
72971.5
73543.4
74333.9
74685.1
75487.5
75610.2
76513.2
76356
77502.6
76947.6
78612
77435.2
80180.7
77895.9
110202
110007
109875
109565
109372
109079
108905
108688
108550
108375
108238
108043
107871
107635
107433
107151
106922
106581
106322
105903
105614
105092
104773
104112
103770
102920
102569
101461
101126
99659.6
99391.2
97417.4
97300.3
94597.5
94775.5
91005.2
91721.9
86359.3
88031.6
80238
83585.9
72073.5
78505.3
61396.6
73344.8
47614.5
68221.9
28468
60117.9
-4191.44
43430.5
-60732.6
14377.3
-167329
-6734.91
-73928.5
9509.86
-36150.1
15178
-12403.2
22293.1
7728.66
30716.3
23390.3
38698.5
35606.3
45677.6
44548.9
51191.3
51158.9
55668.9
56195.8
59329.9
60064.4
62265
63009.4
64587.2
65323.9
66572.7
67393.1
68512.3
69423
70416.5
71326
72125.5
72968
73541
74330.1
74682.8
75482.8
75607.8
76507
76353.3
77494.2
76944.6
78601.8
77433.5
80172.5
77895.8
110222
110023
109890
109576
109381
109085
108909
108691
108553
108378
108242
108047
107875
107639
107438
107156
106927
106586
106327
105909
105620
105098
104779
104119
103777
102929
102576
101471
101134
99670.5
99399.2
97429.8
97308.6
94611.9
94784.1
91022.1
91730.5
86379.1
88040
80260.8
83593.5
72098.6
78513.5
61426.8
73362.6
47658.7
68261.7
28537.8
60187.6
-4105.59
43509.1
-60715.7
14349.7
-167928
-6897.08
-73939.3
9479.7
-36149.4
15163.7
-12389.2
22289.5
7740.66
30709
23398.7
38691.7
35612
45669.9
44549.8
51181.2
51155.3
55657.3
56189.4
59318.1
60056.6
62254
63001.6
64577.5
65316.4
66564.2
67386.1
68505.3
69417.2
70411.3
71321.5
72121.9
72964.1
73538.2
74326.2
74680.3
75478
75605.3
76500.6
76350.4
77485.8
76941.6
78591.6
77432
80164.3
77896
110242
110040
109905
109587
109391
109092
108914
108694
108556
108381
108246
108052
107880
107644
107442
107161
106932
106591
106333
105915
105625
105105
104786
104127
103783
102937
102583
101480
101141
99681.3
99407.2
97442.4
97317
94626.5
94792.8
91039.2
91739.3
86399.1
88048.7
80284
83601.5
72124.3
78522.3
61457.7
73381.2
47703.7
68301.7
28607.4
60257.8
-4017.97
43590.2
-60695.8
14324.2
-168531
-7061.85
-73951.2
9448.82
-36148.3
15150.4
-12373.8
22287.6
7754.54
30704
23409.1
38686.9
35619.5
45663.9
44552.1
51172.6
51152.8
55646.8
56183.6
59306.7
60049
62243.1
62993.8
64568
65309
66555.8
67379.3
68498.4
69411.3
70406
71316.7
72118
72960
73535.2
74321.9
74677.6
75473
75602.5
76494.2
76347.5
77477.4
76938.8
78581.6
77430.7
80156
77896.4
110262
110057
109921
109599
109400
109098
108919
108698
108559
108384
108250
108056
107884
107649
107447
107166
106936
106597
106338
105921
105631
105111
104792
104134
103790
102946
102590
101490
101149
99692.3
99415.4
97455
97325.6
94641.2
94801.6
91056.4
91748.2
86419.4
88057.6
80307.6
83609.9
72150.6
78531.8
61489.5
73400.6
47749.2
68342
28676.7
60328.2
-3928.74
43673.8
-60672.6
14300.9
-169137
-7229.2
-73964.1
9417.27
-36146.9
15138.2
-12357.1
22287.4
7770.06
30700.9
23421.3
38684
35628.5
45659.5
44555.8
51165.3
51151.5
55637.3
56178.7
59296
60041.9
62232.4
62986.2
64558.5
65301.8
66547.7
67372.6
68491.6
69405.6
70400.7
71311.9
72114
72955.7
73531.9
74317.5
74674.7
75467.8
75599.6
76487.6
76344.5
77468.9
76936
78571.6
77429.7
80147.7
77897
110283
110073
109936
109610
109409
109104
108923
108701
108562
108387
108254
108061
107889
107653
107452
107171
106941
106602
106343
105927
105637
105118
104798
104142
103797
102954
102597
101499
101157
99703.4
99423.6
97467.8
97334.2
94656.1
94810.5
91073.9
91757.3
86440.1
88066.8
80331.6
83618.7
72177.5
78542
61522
73420.8
47795.2
68382.4
28745.5
60398.6
-3838.06
43759.9
-60646.3
14280.1
-169748
-7399.11
-73978.1
9385.09
-36145.1
15126.9
-12339.3
22288.5
7786.98
30699.5
23435
38682.8
35638.9
45656.6
44560.8
51159.5
51151.4
55629
56174.7
59286
60035.3
62222.2
62978.9
64549.4
65294.8
66539.9
67366.3
68485.1
69400
70395.4
71307
72109.7
72951.1
73528.5
74312.8
74671.6
75462.4
75596.6
76481
76341.5
77460.5
76933.3
78561.7
77428.9
80139.4
77898
110303
110090
109952
109621
109418
109110
108928
108705
108565
108391
108258
108065
107893
107658
107456
107176
106946
106608
106349
105933
105643
105125
104804
104149
103804
102963
102605
101509
101165
99714.6
99432
97480.7
97342.9
94671.1
94819.6
91091.6
91766.7
86461
88076.4
80356
83628
72205
78552.9
61555.3
73441.8
47841.7
68422.8
28813.7
60468.8
-3746.14
43848.3
-60616.6
14261.9
-170361
-7571.51
-73993
9352.35
-36142.9
15116.6
-12320.4
22290.8
7805.07
30699.6
23450.1
38683.1
35650.5
45655.1
44567.1
51154.9
51152.6
55622
56171.8
59277
60029.4
62212.5
62972
64540.6
65288.3
66532.4
67360.3
68478.9
69394.7
70390.3
71302
72105.4
72946.5
73524.8
74308
74668.3
75456.9
75593.5
76474.3
76338.5
77452.1
76930.7
78552
77428.5
80131.1
77899.2
110324
110108
109968
109633
109427
109117
108932
108708
108568
108394
108261
108070
107898
107663
107461
107181
106951
106613
106354
105939
105649
105132
104811
104157
103811
102971
102612
101519
101173
99725.8
99440.4
97493.7
97351.8
94686.3
94828.9
91109.5
91776.3
86482.2
88086.2
80380.8
83637.7
72233.1
78564.4
61589.4
73463.6
47888.6
68463
28881.1
60538.6
-3653.18
43939
-60583.5
14246.4
-170979
-7746.33
-74008.7
9319.1
-36140.2
15107.2
-12300.6
22294.2
7824.12
30700.9
23466.2
38684.6
35663.1
45654.7
44574.3
51151.6
51154.8
55616.1
56170
59269
60024.3
62203.4
62965.6
64532.2
65282.2
66525.5
67354.9
68473.2
69389.6
70385.3
71297.2
72101.1
72941.7
73521
74303.1
74664.8
75451.4
75590.2
76467.6
76335.4
77443.8
76928.3
78542.6
77428.3
80122.9
77900.7
110346
110125
109984
109644
109437
109123
108937
108712
108571
108397
108265
108075
107903
107668
107466
107186
106956
106619
106359
105945
105654
105139
104817
104165
103818
102980
102620
101529
101181
99737.1
99448.9
97506.8
97360.8
94701.7
94838.3
91127.6
91786.1
86503.7
88096.4
80406.1
83648
72261.8
78576.7
61624.2
73486.2
47935.8
68503.2
28947.5
60607.7
-3559.46
44031.8
-60546.9
14233.7
-171600
-7923.46
-74025.2
9285.39
-36137.1
15098.6
-12280
22298.4
7843.97
30703.2
23483.3
38687.2
35676.6
45655.3
44582.5
51149.3
51158.1
55611.3
56169.2
59261.9
60020.1
62195.1
62959.9
64524.5
65276.7
66519.1
67350
68467.9
69385
70380.6
71292.5
72096.7
72936.9
73517.1
74298
74661.3
75445.7
75587
76460.9
76332.5
77435.6
76926.1
78533.3
77428.5
80114.8
77902.5
110367
110142
110000
109656
109446
109129
108942
108715
108574
108400
108269
108079
107907
107673
107471
107191
106962
106624
106365
105951
105660
105146
104824
104172
103824
102989
102627
101539
101189
99748.6
99457.5
97520
97369.9
94717.2
94847.9
91145.9
91796.1
86525.5
88106.9
80431.8
83658.7
72291.1
78589.7
61659.8
73509.4
47983.3
68543
29012.7
60675.9
-3465.26
44126.6
-60506.9
14224.1
-172224
-8102.78
-74042.4
9251.29
-36133.6
15090.9
-12258.6
22303.3
7864.46
30706.4
23501.1
38690.7
35690.7
45656.7
44591.4
51147.9
51162.3
55607.5
56169.4
59255.9
60016.8
62187.6
62954.9
64517.4
65271.9
66513.4
67345.7
68463.2
69380.8
70376.2
71288
72092.5
72932.2
73513.2
74293
74657.7
75440.1
75583.7
76454.2
76329.6
77427.6
76924.2
78524.3
77429
80106.8
77904.7
110389
110160
110017
109668
109456
109136
108946
108718
108577
108403
108273
108084
107912
107678
107476
107197
106967
106630
106370
105958
105666
105152
104830
104180
103832
102998
102635
101549
101197
99760.1
99466.2
97533.4
97379.2
94732.8
94857.7
91164.5
91806.3
86547.6
88117.7
80457.9
83670
72321.1
78603.4
61696.2
73533.4
48031.1
68582.5
29076.6
60742.9
-3370.87
44223.1
-60463.4
14217.5
-172852
-8284.12
-74060
9216.86
-36129.6
15083.8
-12236.6
22308.8
7885.47
30710.2
23519.5
38694.9
35705.5
45658.9
44600.8
51147.3
51167.2
55604.7
56170.5
59250.9
60014.4
62181
62950.6
64511.1
65267.7
66508.4
67342.1
68459.1
69377.2
70372.2
71283.9
72088.5
72927.5
73509.4
74287.9
74654.1
75434.4
75580.4
76447.7
76326.8
77419.8
76922.5
78515.7
77430
80098.9
77907.2
110411
110178
110033
109680
109465
109142
108951
108722
108580
108407
108277
108089
107917
107683
107481
107202
106972
106636
106376
105964
105672
105160
104837
104188
103839
103007
102642
101559
101205
99771.7
99475
97546.9
97388.5
94748.7
94867.6
91183.3
91816.8
86570
88128.8
80484.5
83681.7
72351.6
78617.9
61733.3
73558
48078.9
68621.5
29139.1
60808.5
-3276.61
44321.1
-60416.5
14214.3
-173484
-8467.32
-74078
9182.15
-36125.2
15077.5
-12214.1
22314.9
7906.89
30714.6
23538.3
38699.8
35720.6
45661.6
44610.7
51147.4
51172.6
55602.7
56172.3
59246.8
60012.9
62175.3
62947.1
64505.5
65264.3
66504.1
67339.2
68455.7
69374.2
70368.8
71280.1
72084.7
72923.1
73505.6
74282.9
74650.6
75428.9
75577.2
76441.2
76324.1
77412.3
76921.1
78507.4
77431.3
80091.2
77910.1
110433
110196
110050
109692
109475
109149
108956
108725
108583
108410
108281
108093
107922
107688
107485
107207
106977
106642
106382
105970
105679
105167
104843
104196
103846
103016
102650
101569
101213
99783.5
99483.9
97560.5
97398
94764.7
94877.7
91202.3
91827.5
86592.7
88140.3
80511.5
83693.9
72382.8
78633.1
61771
73583.2
48126.8
68660.1
29200.1
60872.5
-3182.83
44420.4
-60366.1
14214.4
-174119
-8652.17
-74096.1
9147.24
-36120.4
15071.8
-12191
22321.3
7928.64
30719.4
23557.5
38705.2
35736.1
45664.9
44620.9
51148
51178.6
55601.3
56174.9
59243.5
60012.3
62170.4
62944.5
64500.7
65261.6
66500.5
67337.1
68453
69371.8
70365.8
71276.7
72081.2
72918.8
73502
74278.1
74647.1
75423.4
75574.1
76434.9
76321.7
77405
76920
78499.5
77433.2
80083.8
77913.4
110456
110214
110067
109704
109484
109155
108960
108728
108585
108413
108285
108098
107927
107693
107491
107213
106982
106647
106387
105977
105685
105174
104850
104204
103853
103025
102658
101580
101222
99795.3
99492.9
97574.3
97407.7
94780.9
94888
91221.6
91838.5
86615.8
88152.1
80538.9
83706.7
72414.6
78648.9
61809.5
73609
48174.8
68698
29259.4
60934.8
-3089.85
44520.6
-60312.4
14218.1
-174757
-8838.45
-74114.3
9112.19
-36115.3
15066.7
-12167.5
22328.2
7950.65
30724.6
23576.8
38711
35751.9
45668.6
44631.4
51149
51184.9
55600.5
56178
59240.9
60012.3
62166.3
62942.6
64496.6
65259.7
66497.8
67335.7
68451
69370
70363.5
71273.8
72078.1
72914.9
73498.6
74273.4
74643.8
75418.2
75571.2
76428.9
76319.5
77398
76919.4
78492.1
77435.5
80076.6
77917.1
110479
110232
110084
109716
109494
109162
108965
108732
108588
108416
108288
108103
107932
107698
107496
107218
106988
106653
106393
105983
105691
105181
104857
104212
103860
103034
102666
101590
101230
99807.3
99502
97588.2
97417.5
94797.3
94898.5
91241
91849.7
86639.2
88164.3
80566.8
83719.9
72447
78665.5
61848.5
73635.3
48222.6
68735.3
29317
60995.1
-2998.02
44621.4
-60255.4
14225.4
-175399
-9025.92
-74132.3
9077.07
-36109.7
15062.1
-12143.5
22335.3
7972.87
30730.1
23596.4
38717.2
35767.9
45672.6
44642
51150.4
51191.5
55600.2
56181.6
59239
60013
62163
62941.5
64493.3
65258.6
66495.7
67335.1
68449.7
69369
70361.7
71271.5
72075.5
72911.3
73495.4
74269
74640.7
75413.1
75568.5
76423.1
76317.6
77391.4
76919.1
78485.1
77438.3
80069.8
77921.3
110502
110251
110101
109728
109504
109168
108970
108735
108591
108419
108292
108107
107937
107703
107501
107224
106993
106659
106399
105990
105697
105188
104863
104220
103868
103043
102674
101601
101239
99819.3
99511.2
97602.3
97427.4
94813.9
94909.2
91260.8
91861.1
86662.8
88176.8
80595.1
83733.6
72480
78682.7
61888.1
73662.1
48270.2
68771.8
29372.8
61053.3
-2907.67
44722.5
-60195.4
14236.3
-176044
-9214.32
-74150
9041.95
-36103.7
15058
-12119.3
22342.7
7995.25
30735.8
23616.1
38723.6
35784
45677
44652.8
51152.2
51198.3
55600.2
56185.5
59237.6
60014.3
62160.4
62941.1
64490.8
65258.2
66494.4
67335.1
68449.1
69368.5
70360.5
71269.6
72073.3
72908.1
73492.7
74265
74637.9
75408.3
75566
76417.6
76316
77385.3
76919.3
78478.7
77441.7
80063.3
77926
110525
110270
110119
109740
109514
109175
108974
108738
108594
108422
108296
108112
107942
107709
107506
107229
106999
106665
106405
105996
105704
105196
104870
104228
103875
103052
102682
101611
101248
99831.5
99520.6
97616.4
97437.5
94830.6
94920
91280.7
91872.8
86686.8
88189.6
80623.8
83747.8
72513.5
78700.6
61928.3
73689.2
48317.6
68807.5
29426.8
61109.3
-2819.13
44823.5
-60132.4
14251.1
-176692
-9403.39
-74167.2
9006.92
-36097.4
15054.4
-12094.7
22350.3
8017.76
30741.7
23635.9
38730.3
35800.3
45681.6
44663.8
51154.2
51205.2
55600.6
56189.7
59236.6
60016
62158.3
62941.2
64488.9
65258.4
66493.8
67335.8
68449.2
69368.8
70360
71268.4
72071.6
72905.4
73490.3
74261.2
74635.4
75403.9
75563.9
76412.5
76314.7
77379.6
76920
78472.9
77445.6
80057.2
77931.1
110549
110289
110136
109753
109524
109182
108979
108742
108597
108425
108300
108117
107947
107714
107511
107235
107004
106671
106411
106003
105710
105203
104877
104237
103883
103062
102690
101622
101256
99843.8
99530
97630.8
97447.6
94847.5
94931
91300.9
91884.7
86711
88202.7
80652.8
83762.5
72547.5
78719.1
61968.8
73716.6
48364.7
68842.4
29478.9
61163.1
-2732.69
44924.1
-60066.7
14269.8
-177344
-9592.86
-74183.7
8972.05
-36090.7
15051.2
-12069.9
22358
8040.36
30747.8
23655.8
38737.3
35816.6
45686.5
44674.8
51156.4
51212.3
55601.3
56194.1
59236
60018.1
62156.8
62942
64487.6
65259.2
66493.8
67337.2
68449.8
69369.6
70360
71267.6
72070.4
72903.1
73488.3
74257.9
74633.2
75399.8
75562.1
76407.8
76313.8
77374.3
76921.1
78467.6
77450.1
80051.6
77936.8
110573
110308
110154
109765
109534
109188
108984
108745
108599
108428
108303
108122
107952
107719
107516
107240
107010
106678
106417
106010
105716
105211
104884
104245
103890
103071
102698
101633
101265
99856.2
99539.6
97645.2
97458
94864.6
94942.2
91321.3
91896.9
86735.6
88216.1
80682.3
83777.5
72582
78738.1
62009.8
73744.3
48411.4
68876.5
29529.2
61214.5
-2648.63
45023.9
-59998.5
14292.3
-177999
-9782.46
-74199.4
8937.41
-36083.7
15048.4
-12044.8
22366
8063.03
30754
23675.7
38744.4
35833
45691.6
44685.9
51158.9
51219.5
55602.2
56198.6
59235.7
60020.5
62155.7
62943.1
64486.9
65260.6
66494.3
67339.1
68451
69370.9
70360.5
71267.4
72069.6
72901.4
73486.7
74255
74631.5
75396.1
75560.6
76403.5
76313.4
77369.6
76922.8
78462.9
77455.3
80046.4
77943
110598
110327
110172
109778
109544
109195
108988
108748
108602
108431
108307
108127
107957
107725
107522
107246
107016
106684
106423
106017
105723
105218
104891
104254
103898
103081
102706
101643
101274
99868.7
99549.2
97659.8
97468.5
94881.8
94953.6
91341.9
91909.2
86760.3
88229.8
80712
83793
72616.9
78757.7
62051.1
73772.2
48457.6
68909.5
29577.7
61263.6
-2567.19
45122.6
-59928.1
14318.7
-178657
-9971.94
-74214
8903.09
-36076.4
15046
-12019.5
22374
8085.76
30760.3
23695.6
38751.6
35849.5
45696.9
44697
51161.5
51226.7
55603.2
56203.3
59235.7
60023.1
62154.9
62944.7
64486.6
65262.4
66495.3
67341.4
68452.7
69372.7
70361.5
71267.7
72069.4
72900
73485.6
74252.6
74630.1
75392.9
75559.5
76399.6
76313.4
77365.4
76925
78458.9
77461
80041.8
77949.8
110623
110346
110190
109791
109554
109202
108993
108752
108605
108434
108311
108131
107962
107730
107527
107252
107022
106690
106429
106024
105730
105226
104898
104262
103906
103090
102715
101654
101283
99881.3
99559
97674.5
97479.1
94899.2
94965.1
91362.7
91921.8
86785.4
88243.8
80742.1
83808.9
72652.2
78777.7
62092.7
73800.2
48503.3
68941.6
29624.3
61310.3
-2488.57
45219.7
-59855.8
14349.1
-179319
-10161.1
-74227.6
8869.16
-36068.7
15044
-11994
22382.2
8108.52
30766.7
23715.5
38759
35865.9
45702.4
44708.1
51164.4
51233.9
55604.5
56208
59235.8
60025.9
62154.5
62946.6
64486.7
65264.7
66496.8
67344.3
68454.9
69375
70362.9
71268.4
72069.5
72899.2
73484.9
74250.6
74629.1
75390.1
75558.9
76396.2
76313.8
77361.8
76927.8
78455.5
77467.3
80037.7
77957.1
110648
110366
110208
109803
109564
109209
108998
108755
108607
108437
108314
108136
107967
107736
107533
107258
107027
106697
106435
106031
105736
105234
104906
104271
103913
103100
102723
101665
101292
99894
99568.9
97689.4
97489.8
94916.8
94976.8
91383.7
91934.5
86810.6
88258
80772.4
83825.1
72687.9
78798.1
62134.4
73828.2
48548.3
68972.7
29669.2
61354.8
-2412.95
45315
-59781.9
14383.3
-179985
-10349.6
-74239.9
8835.69
-36060.6
15042.3
-11968.3
22390.5
8131.31
30773.2
23735.4
38766.6
35882.5
45708.1
44719.3
51167.4
51241.3
55606
56212.9
59236.2
60028.8
62154.3
62948.7
64487.2
65267.4
66498.7
67347.5
68457.4
69377.6
70364.7
71269.4
72070.1
72898.7
73484.7
74249
74628.6
75387.7
75558.6
76393.3
76314.7
77358.7
76931.1
78452.7
77474.2
80034.2
77965
110673
110385
110226
109816
109574
109216
109003
108758
108610
108440
108318
108141
107972
107741
107538
107264
107033
106703
106442
106038
105743
105241
104913
104279
103921
103110
102732
101677
101301
99906.8
99578.9
97704.3
97500.6
94934.5
94988.6
91404.9
91947.5
86836.1
88272.4
80803
83841.6
72723.8
78818.9
62176.2
73856.1
48592.7
69002.8
29712.3
61397
-2340.44
45408.1
-59706.8
14421.4
-180654
-10537.3
-74250.9
8802.76
-36052.2
15040.9
-11942.5
22398.9
8154.1
30779.8
23755.3
38774.2
35899
45713.9
44730.5
51170.5
51248.6
55607.6
56217.8
59236.7
60031.8
62154.3
62951
64488
65270.3
66500.9
67351
68460.3
69380.6
70366.8
71270.9
72071
72898.6
73484.8
74247.8
74628.5
75385.8
75558.8
76390.8
76316
77356.1
76934.9
78450.6
77481.6
80031.2
77973.4
110699
110405
110245
109829
109585
109223
109007
108762
108613
108443
108322
108146
107978
107747
107544
107270
107039
106710
106448
106045
105750
105249
104921
104288
103929
103120
102740
101688
101311
99919.8
99589
97719.4
97511.6
94952.4
95000.6
91426.2
91960.6
86861.7
88287
80833.8
83858.4
72760
78840
62218.1
73884
48636.3
69031.8
29753.6
61437.1
-2271.12
45498.8
-59631
14463.1
-181327
-10724.1
-74260.5
8770.42
-36043.5
15039.9
-11916.6
22407.3
8176.9
30786.4
23775.2
38781.9
35915.5
45719.9
44741.8
51173.8
51256
55609.3
56222.8
59237.4
60034.9
62154.5
62953.5
64489
65273.5
66503.4
67354.8
68463.4
69383.8
70369.3
71272.6
72072.2
72898.8
73485.3
74247.1
74628.7
75384.3
75559.4
76388.8
76317.7
77354
76939.1
78449
77489.6
80028.7
77982.3
110725
110426
110264
109843
109595
109230
109012
108765
108615
108445
108325
108150
107983
107753
107550
107276
107045
106716
106455
106052
105757
105257
104928
104297
103937
103130
102749
101699
101320
99932.8
99599.2
97734.6
97522.7
94970.3
95012.7
91447.7
91973.8
86887.5
88301.8
80864.8
83875.5
72796.4
78861.4
62259.9
73911.6
48679.1
69059.8
29793.4
61475.2
-2205.01
45586.8
-59554.8
14508.4
-182004
-10909.8
-74268.8
8738.72
-36034.4
15039.2
-11890.5
22415.8
8199.69
30793.1
23795
38789.7
35932.1
45726
44753
51177.2
51263.4
55611.2
56227.8
59238.3
60038.2
62154.8
62956.1
64490.2
65276.9
66506.2
67358.8
68466.8
69387.3
70371.9
71274.5
72073.7
72899.4
73486
74246.7
74629.3
75383.2
75560.4
76387.3
76319.9
77352.5
76943.9
78448
77498.1
80026.8
77991.7
110751
110446
110283
109856
109606
109237
109017
108768
108618
108448
108328
108155
107988
107758
107555
107282
107052
106723
106462
106060
105764
105266
104936
104306
103946
103140
102758
101711
101330
99945.9
99609.5
97749.9
97533.9
94988.4
95024.9
91469.3
91987.2
86913.5
88316.8
80895.9
83892.7
72832.8
78882.8
62301.5
73938.9
48721.1
69086.6
29831.4
61511.3
-2142.1
45672
-59478.7
14557.1
-182684
-11094.2
-74275.6
8707.7
-36024.9
15038.9
-11864.3
22424.4
8222.47
30799.8
23814.8
38797.6
35948.6
45732.2
44764.3
51180.8
51270.8
55613.3
56232.8
59239.2
60041.4
62155.3
62958.8
64491.6
65280.4
66509.2
67363.1
68470.4
69390.9
70374.8
71276.7
72075.4
72900.2
73487.1
74246.6
74630.3
75382.4
75561.7
76386.1
76322.5
77351.4
76949.1
78447.6
77507.1
80025.3
78001.5
110778
110466
110302
109869
109616
109244
109022
108772
108620
108451
108332
108159
107993
107764
107561
107289
107058
106730
106468
106067
105772
105274
104943
104315
103954
103150
102767
101722
101339
99959.1
99619.8
97765.3
97545.2
95006.6
95037.2
91491.1
92000.7
86939.5
88331.8
80927.1
83910
72869.4
78904.4
62343
73965.9
48762.2
69112.4
29867.9
61545.6
-2082.35
45754.1
-59403.1
14609
-183369
-11277.4
-74280.9
8677.4
-36015
15038.8
-11838
22433.1
8245.23
30806.5
23834.6
38805.6
35965.2
45738.6
44775.6
51184.5
51278.3
55615.4
56237.9
59240.4
60044.8
62156
62961.7
64493.1
65284.1
66512.3
67367.5
68474.1
69394.7
70377.8
71279.1
72077.3
72901.2
73488.3
74246.7
74631.5
75382
75563.3
76385.4
76325.4
77350.8
76954.7
78447.7
77516.4
80024.3
78011.7
110805
110487
110321
109883
109627
109251
109026
108775
108623
108453
108335
108164
107998
107770
107567
107295
107064
106737
106475
106075
105779
105282
104951
104325
103962
103160
102776
101734
101349
99972.4
99630.3
97780.8
97556.6
95024.9
95049.6
91512.9
92014.2
86965.6
88346.9
80958.3
83927.4
72905.9
78926.1
62384.1
73992.4
48802.3
69137.1
29902.9
61578.2