/*--------------------------------*- C++ -*----------------------------------*\
| =========                 |                                                 |
| \\      /  F ield         | OpenFOAM: The Open Source CFD Toolbox           |
|  \\    /   O peration     | Version:  2412                                  |
|   \\  /    A nd           | Website:  www.openfoam.com                      |
|    \\/     M anipulation  |                                                 |
\*---------------------------------------------------------------------------*/
FoamFile
{
    version     2.0;
    format      ascii;
    arch        "LSB;label=32;scalar=64";
    class       surfaceScalarField;
    location    "0.4";
    object      phi;
}
// * * * * * * * * * * * * * * * * * * * * * * * * * * * * * * * * * * * * * //

dimensions      [0 3 -1 0 0 0 0];

oriented        oriented;

internalField   nonuniform List<scalar> 
25922
(
0.00749644
0.0257284
0.00745098
0.0218109
0.00742498
0.0174916
0.00739758
0.0120069
0.00736167
0.00497752
0.00731635
-0.00222378
0.00726846
-0.0084896
0.00722988
-0.0127425
0.00721175
-0.0144368
0.00721589
-0.0136738
0.00723038
-0.0115316
0.00724383
-0.00950867
0.00725373
-0.00811193
0.00726247
-0.00720958
0.00727115
-0.00644304
0.00728016
-0.00581819
0.00728888
-0.00516845
0.00729749
-0.00467953
0.00730524
-0.00411452
0.0073126
-0.00373004
0.00731866
-0.00320908
0.00732425
-0.00291283
0.00732812
-0.00237987
0.00733167
-0.0021953
0.00733314
-0.00164062
0.00733465
-0.00156966
0.00733369
-0.000969324
0.00733338
-0.00104448
0.00733008
-0.000344752
0.00732841
-0.000639321
0.00732296
0.000219865
0.00732036
-0.000329619
0.0073126
0.000773548
0.00730918
-0.000129915
0.00729856
0.00129592
0.0072943
-6.36878e-05
0.00728005
0.00178158
0.00727413
-0.000197394
0.00209799
0.00749689
0.0258072
0.00745231
0.0218554
0.00742735
0.0175166
0.00740066
0.0120336
0.00736484
0.00501335
0.00731896
-0.0021779
0.00726989
-0.00844054
0.00722973
-0.0127023
0.00721001
-0.0144171
0.00721308
-0.0136769
0.00722712
-0.0115457
0.00724044
-0.00952199
0.00725019
-0.00812169
0.00725878
-0.00721817
0.00726731
-0.00645156
0.0072762
-0.00582708
0.00728482
-0.00517707
0.00729336
-0.00468807
0.00730105
-0.00412221
0.00730835
-0.00373734
0.00731436
-0.0032151
0.00731991
-0.00291838
0.00732374
-0.0023837
0.00732725
-0.00219882
0.0073287
-0.00164206
0.00733017
-0.00157113
0.00732919
-0.000968341
0.00732885
-0.00104414
0.00732552
-0.000341422
0.00732382
-0.000637626
0.00731835
0.000225338
0.00731574
-0.000327011
0.00730796
0.00078133
0.00730454
-0.000126493
0.00729389
0.00130657
0.00728963
-5.94257e-05
0.00727536
0.00179584
0.00726945
-0.000191484
0.00724916
0.00211828
0.00723965
-0.000789757
0.00721506
0.00155952
0.00720993
-0.00280892
0.00719649
-0.000847136
0.00721393
-0.00655831
0.00723083
-0.00419659
0.00728758
-0.0093974
0.00733187
-0.00324145
0.00738595
-0.00404055
0.00738799
0.00597464
0.00742023
0.00722648
0.00745813
0.0157799
0.00755274
0.0374539
0.00768509
0.0621904
0.00786359
-0.0176469
0.00790342
-0.0496608
0.00786488
-0.0260738
0.00774094
-0.000675727
0.00761846
0.00268423
0.00750352
0.00859026
0.00744601
0.00175913
0.00741988
0.00340917
0.00742379
-0.00164178
0.00742159
0.00098877
0.00743357
-0.00265277
0.00744083
-0.000528988
0.00745778
-0.00306041
0.00746739
-0.00106183
0.00748129
-0.00242451
-0.000393291
0.00749735
0.0258856
0.00745367
0.0218991
0.00742978
0.0175404
0.00740382
0.0120595
0.0073681
0.00504907
0.00732164
-0.00213144
0.00727139
-0.00839028
0.00722962
-0.0126606
0.00720829
-0.0143957
0.00721025
-0.0136789
0.00722384
-0.0115593
0.00723702
-0.00953516
0.00724665
-0.00813132
0.00725508
-0.0072266
0.00726345
-0.00645994
0.00727223
-0.00583586
0.00728076
-0.0051856
0.00728921
-0.00469653
0.00729684
-0.00412983
0.00730408
-0.00374458
0.00731005
-0.00322107
0.00731556
-0.00292388
0.00731935
-0.00238749
0.00732284
-0.0022023
0.00732425
-0.00164348
0.0073257
-0.00157258
0.00732469
-0.00096733
0.00732432
-0.00104378
0.00732097
-0.000338064
0.00731925
-0.000635912
0.00731375
0.000230836
0.00731113
-0.000324391
0.00730334
0.000789127
0.00729991
-0.000123068
0.00728925
0.00131723
0.00728499
-5.51661e-05
0.00727071
0.00181012
0.00726482
-0.000185587
0.00724449
0.0021386
0.00723491
-0.000780178
0.00721015
0.00158427
0.0072048
-0.00280356
0.00719102
-0.000833359
0.0072081
-0.00657538
0.00722462
-0.00421311
0.00728124
-0.00945402
0.00732613
-0.00328634
0.00738117
-0.00409559
0.00738384
0.00597197
0.00741632
0.007194
0.00745464
0.0157415
0.00755195
0.0373566
0.00768879
0.0620536
0.00786782
-0.017826
0.00790545
-0.0496985
0.00786651
-0.0260349
0.00774313
-0.000552361
0.00762107
0.00280629
0.00750581
0.00870552
0.00744612
0.00181882
0.0074185
0.00343678
0.00742134
-0.00164462
0.00741906
0.000991051
0.00743071
-0.00266442
0.00743818
-0.000536451
0.00745521
-0.00307744
0.00746511
-0.00107174
0.00747907
-0.00243847
0.00748521
-0.000399428
0.00749132
-0.000876117
0.00748886
0.00100223
0.00748464
0.00103388
0.00747278
0.0026538
0.00745771
0.00294283
0.00743569
0.00416911
0.00741106
0.00430845
0.00738354
0.00481615
0.00735831
0.00443916
0.00733699
0.00416797
0.00732254
0.00344078
0.0073138
0.00296225
0.00730956
0.00247843
0.00730664
0.00228128
0.00730263
0.00227926
0.0072955
0.00237194
0.00728411
0.00265551
0.00726886
0.00275241
0.00724936
0.00303286
0.00722729
0.00288124
0.00720068
0.00306177
0.00717267
0.00254568
0.00713834
0.00250199
0.00710474
0.00144188
0.00706149
0.000912784
0.00702476
-0.000972345
0.00697125
-0.00262976
0.0069339
-0.00563493
0.00684429
-0.00902142
-0.0131245
0.00749783
0.0259636
0.00745506
0.0219419
0.00743225
0.0175632
0.00740704
0.0120847
0.00737143
0.00508467
0.00732441
-0.00208442
0.00727296
-0.00833883
0.00722957
-0.0126172
0.00720658
-0.0143728
0.0072074
-0.0136797
0.00722055
-0.0115724
0.00723359
-0.0095482
0.00724309
-0.00814082
0.00725136
-0.00723486
0.00725959
-0.00646816
0.00726825
-0.00584452
0.00727668
-0.00519403
0.00728507
-0.00470491
0.00729262
-0.00413739
0.00729982
-0.00375178
0.00730574
-0.00322699
0.00731121
-0.00292935
0.00731497
-0.00239125
0.00731842
-0.00220576
0.00731981
-0.00164486
0.00732123
-0.001574
0.00732019
-0.000966294
0.00731981
-0.00104339
0.00731642
-0.000334681
0.00731469
-0.000634183
0.00730918
0.000236354
0.00730655
-0.000321763
0.00729874
0.000796938
0.00729531
-0.000119644
0.00728464
0.0013279
0.00728039
-5.09118e-05
0.0072661
0.00182441
0.00726022
-0.000179709
0.00723986
0.00215896
0.00723023
-0.000770546
0.00720531
0.0016092
0.00719972
-0.00279798
0.0071856
-0.000819237
0.00720228
-0.00659206
0.0072184
-0.00422923
0.00727483
-0.00951045
0.00732033
-0.00333183
0.00737637
-0.00415163
0.00737975
0.00596859
0.00741246
0.0071613
0.00745119
0.0157028
0.00755116
0.0372566
0.0076924
0.0619123
0.00787189
-0.0180055
0.00790736
-0.0497339
0.00786817
-0.0259957
0.00774556
-0.000429749
0.00762405
0.00292779
0.00750857
0.008821
0.00744658
0.0018808
0.00741733
0.00346604
0.0074189
-0.00164618
0.00741651
0.000993442
0.00742775
-0.00267566
0.00743544
-0.000544137
0.00745255
-0.00309455
0.0074628
-0.00108199
0.00747684
-0.00245251
0.00748323
-0.000405822
0.00748951
-0.000882394
0.00748729
0.00100445
0.00748322
0.00103794
0.00747154
0.00266548
0.0074566
0.00295778
0.00743468
0.00419103
0.00741004
0.00433308
0.0073824
0.00484379
0.00735691
0.00446465
0.00733526
0.00418962
0.00732049
0.00345555
0.00731154
0.00297121
0.0073072
0.00248277
0.00730432
0.00228416
0.00730043
0.00228315
0.00729343
0.00237894
0.00728216
0.00266678
0.00726698
0.00276759
0.00724749
0.00305235
0.0072254
0.00290333
0.00719874
0.00308843
0.00717063
0.00257379
0.00713617
0.00253645
0.00710238
0.00147567
0.00705881
0.00095636
0.00702165
-0.000935187
0.00696707
-0.00257517
0.00692825
-0.00559612
0.00683507
-0.00892824
-0.0130418
0.00749831
0.026041
0.00745647
0.0219837
0.00743478
0.0175849
0.00741033
0.0121092
0.00737485
0.00512016
0.00732726
-0.00203683
0.0072746
-0.00828617
0.00722956
-0.0125721
0.00720488
-0.0143481
0.00720455
-0.0136794
0.00721723
-0.0115851
0.00723015
-0.00956112
0.00723953
-0.0081502
0.00724764
-0.00724298
0.00725572
-0.00647625
0.00726426
-0.00585307
0.0072726
-0.00520237
0.00728091
-0.00471322
0.00728841
-0.00414489
0.00729555
-0.00375892
0.00730143
-0.00323288
0.00730686
-0.00293477
0.00731059
-0.00239498
0.00731401
-0.00220918
0.00731537
-0.00164622
0.00731677
-0.0015754
0.00731571
-0.000965233
0.0073153
-0.00104299
0.0073119
-0.000331277
0.00731015
-0.000632435
0.00730461
0.00024189
0.00730198
-0.000319129
0.00729416
0.00080476
0.00729074
-0.000116222
0.00728006
0.00133858
0.00727581
-4.66661e-05
0.00726152
0.00183871
0.00725566
-0.000173853
0.00723528
0.00217933
0.00722561
-0.000760868
0.00720051
0.00163429
0.0071947
-0.00279216
0.00718022
-0.000804757
0.00719648
-0.00660833
0.00721216
-0.00424491
0.00726837
-0.00956666
0.00731446
-0.00337792
0.00737156
-0.00420873
0.00737571
0.00596444
0.00740865
0.00712836
0.00744777
0.0156637
0.00755035
0.037154
0.00769594
0.0617667
0.00787581
-0.0181853
0.00790917
-0.0497673
0.00786988
-0.0259564
0.00774819
-0.000308061
0.00762739
0.00304859
0.0075118
0.00893658
0.00744744
0.00194516
0.00741639
0.00349709
0.00741646
-0.00164625
0.00741392
0.000995985
0.00742467
-0.00268641
0.00743259
-0.000552066
0.00744978
-0.00311173
0.00746043
-0.00109264
0.00747457
-0.00246664
0.00748126
-0.000412513
0.00748772
-0.000888853
0.00748578
0.00100639
0.00748189
0.00104183
0.00747042
0.00267695
0.00745562
0.00297258
0.00743382
0.00421283
0.00740919
0.00435771
0.00738143
0.00487155
0.00735567
0.00449041
0.00733367
0.00421162
0.00731855
0.00347068
0.00730934
0.00298042
0.00730488
0.00248722
0.00730202
0.00228702
0.00729825
0.00228693
0.0072914
0.00238578
0.00728026
0.00267793
0.00726516
0.00278269
0.00724571
0.00307179
0.00722361
0.00292544
0.0071969
0.00311514
0.00716871
0.00260198
0.00713413
0.00257104
0.00710016
0.00150964
0.00705627
0.00100025
0.00701868
-0.000897598
0.00696301
-0.0025195
0.00692271
-0.00555581
0.00682594
-0.00883147
-0.0129556
0.00749881
0.026118
0.00745791
0.0220246
0.00743735
0.0176055
0.0074137
0.0121328
0.00737836
0.00515551
0.0073302
-0.00198867
0.00727631
-0.00823228
0.0072296
-0.0125254
0.00720321
-0.0143217
0.00720169
-0.0136778
0.0072139
-0.0115973
0.00722669
-0.00957391
0.00723595
-0.00815946
0.00724391
-0.00725093
0.00725184
-0.00648418
0.00726027
-0.00586149
0.00726852
-0.00521062
0.00727675
-0.00472145
0.00728419
-0.00415232
0.00729128
-0.00376601
0.00729712
-0.00323871
0.00730251
-0.00294017
0.00730621
-0.00239867
0.0073096
-0.00221258
0.00731094
-0.00164756
0.00731231
-0.00157677
0.00731123
-0.000964151
0.0073108
-0.00104256
0.00730738
-0.000327855
0.00730562
-0.000630672
0.00730007
0.000247439
0.00729743
-0.000316491
0.0072896
0.000812589
0.00728619
-0.000112807
0.0072755
0.00134927
0.00727127
-4.2433e-05
0.00725697
0.001853
0.00725114
-0.000168024
0.00723075
0.00219972
0.00722104
-0.000751149
0.00719578
0.00165955
0.00718973
-0.00278611
0.00717488
-0.000789909
0.0071907
-0.00662415
0.00720591
-0.00426012
0.00726184
-0.00962259
0.00730853
-0.00342462
0.00736673
-0.00426692
0.00737173
0.00595944
0.00740491
0.00709517
0.00744437
0.0156242
0.00754952
0.0370489
0.00769938
0.0616169
0.00787956
-0.0183655
0.00791086
-0.0497986
0.00787162
-0.0259172
0.00775104
-0.000187484
0.00763108
0.00316855
0.00751554
0.00905213
0.00744873
0.00201196
0.00741574
0.00353009
0.00741405
-0.00164457
0.00741131
0.000998732
0.00742143
-0.00269653
0.00742962
-0.000560255
0.00744687
-0.00312897
0.007458
-0.00110378
0.00747225
-0.00248089
0.00747929
-0.000419549
0.00748595
-0.000895515
0.00748433
0.00100801
0.00748064
0.00104552
0.00746941
0.00268818
0.00745478
0.00298721
0.00743312
0.00423449
0.00740851
0.00438232
0.00738065
0.00489941
0.00735461
0.00451645
0.00733223
0.004234
0.00731671
0.0034862
0.00730721
0.00298992
0.00730261
0.00249182
0.00729976
0.00228987
0.00729611
0.00229058
0.00728942
0.00239247
0.00727843
0.00268892
0.00726342
0.0027977
0.00724402
0.0030912
0.00722191
0.00294755
0.00719518
0.00314187
0.00716691
0.00263025
0.00713221
0.00260574
0.00709806
0.00154378
0.00705387
0.00104444
0.00701585
-0.000859579
0.0069591
-0.00246275
0.00691726
-0.00551398
0.00681691
-0.00873112
-0.0128661
0.00749932
0.0261944
0.00745939
0.0220646
0.00743998
0.0176249
0.00741715
0.0121557
0.00738195
0.0051907
0.00733323
-0.00193995
0.0072781
-0.00817715
0.0072297
-0.012477
0.00720155
-0.0142935
0.00719882
-0.0136751
0.00721054
-0.011609
0.00722321
-0.00958658
0.00723237
-0.00816862
0.00724017
-0.00725873
0.00724796
-0.00649197
0.00725627
-0.0058698
0.00726443
-0.00521878
0.00727259
-0.00472962
0.00727997
-0.0041597
0.00728701
-0.00377306
0.0072928
-0.00324451
0.00729816
-0.00294552
0.00730183
-0.00240234
0.0073052
-0.00221595
0.00730651
-0.00164886
0.00730786
-0.00157813
0.00730676
-0.000963049
0.00730632
-0.00104213
0.00730288
-0.000324414
0.00730111
-0.0006289
0.00729555
0.000253002
0.00729291
-0.000313852
0.00728508
0.00082042
0.00728167
-0.000109399
0.00727098
0.00135996
0.00726676
-3.82153e-05
0.00725247
0.00186729
0.00724667
-0.000162229
0.00722628
0.00222012
0.00721653
-0.000741395
0.00719111
0.00168497
0.00718482
-0.00277982
0.00716959
-0.000774681
0.00718495
-0.00663951
0.00719964
-0.00427481
0.00725524
-0.00967819
0.00730253
-0.00347191
0.00736186
-0.00432626
0.00736779
0.00595351
0.00740123
0.00706174
0.00744101
0.0155844
0.00754868
0.0369412
0.00770273
0.0614628
0.00788314
-0.0185459
0.00791242
-0.0498278
0.00787339
-0.0258781
0.00775411
-6.82054e-05
0.00763516
0.00328749
0.0075198
0.00916749
0.00745051
0.00208124
0.00741541
0.00356518
0.00741169
-0.00164085
0.00740867
0.00100176
0.00741803
-0.00270589
0.00742649
-0.00056872
0.00744378
-0.00314626
0.00745548
-0.00111549
0.00746986
-0.00249526
0.0074773
-0.000426987
0.00748419
-0.000902401
0.00748294
0.00100925
0.00747948
0.00104899
0.00746852
0.00269913
0.00745408
0.00300165
0.00743259
0.00425598
0.00740802
0.00440689
0.00738006
0.00492737
0.00735373
0.00454278
0.00733094
0.00425679
0.00731498
0.00350215
0.00730516
0.00299974
0.00730039
0.00249658
0.00729754
0.00229272
0.007294
0.00229412
0.00728749
0.00239898
0.00727665
0.00269975
0.00726176
0.00281259
0.00724242
0.00311054
0.00722031
0.00296965
0.00719356
0.00316863
0.00716522
0.00265858
0.00713042
0.00264054
0.00709611
0.00157808
0.00705163
0.00108893
0.00701318
-0.000821129
0.00695532
-0.00240489
0.00691194
-0.0054706
0.00680802
-0.00862719
-0.0127731
0.00749984
0.0262703
0.00746089
0.0221035
0.00744267
0.0176431
0.00742067
0.0121777
0.00738563
0.00522574
0.00733635
-0.00189067
0.00727998
-0.00812078
0.00722985
-0.0124269
0.00719992
-0.0142636
0.00719595
-0.0136711
0.00720717
-0.0116202
0.00721972
-0.00959913
0.00722877
-0.00817767
0.00723642
-0.00726638
0.00724407
-0.00649962
0.00725226
-0.005878
0.00726033
-0.00522685
0.00726842
-0.00473771
0.00727574
-0.00416702
0.00728274
-0.00378005
0.00728849
-0.00325026
0.00729381
-0.00295085
0.00729745
-0.00240597
0.0073008
-0.0022193
0.00730208
-0.00165015
0.00730342
-0.00157947
0.0073023
-0.000961928
0.00730185
-0.00104167
0.00729839
-0.000320959
0.00729662
-0.000627122
0.00729104
0.000258575
0.00728841
-0.000311215
0.00728057
0.000828253
0.00727718
-0.000106006
0.00726649
0.00137065
0.00726229
-3.40172e-05
0.00724801
0.00188158
0.00724225
-0.000156472
0.00722186
0.00224051
0.00721208
-0.000731615
0.0071865
0.00171055
0.00717997
-0.00277329
0.00716435
-0.000759061
0.00717922
-0.00665438
0.00719336
-0.00428895
0.00724857
-0.00973341
0.00729644
-0.00351978
0.00735696
-0.00438677
0.00736391
0.00594656
0.00739761
0.00702804
0.00743769
0.0155444
0.00754783
0.0368311
0.00770599
0.0613046
0.00788654
-0.0187265
0.00791384
-0.0498551
0.00787519
-0.0258395
0.00775742
4.95704e-05
0.00763964
0.00340527
0.00752462
0.00928251
0.00745283
0.00215303
0.00741549
0.00360253
0.0074094
-0.00163475
0.00740601
0.00100515
0.00741442
-0.00271431
0.00742317
-0.000577471
0.00744047
-0.00316356
0.00745285
-0.00112786
0.00746738
-0.0025098
0.00747529
-0.000434897
0.00748243
-0.000909539
0.00748161
0.00101008
0.0074784
0.0010522
0.00746775
0.00270978
0.00745353
0.00301587
0.00743224
0.00427726
0.00740773
0.0044314
0.00737968
0.00495543
0.00735305
0.00456942
0.00732982
0.00428002
0.00731339
0.00351858
0.00730319
0.00300994
0.00729823
0.00250155
0.00729535
0.00229559
0.00729193
0.00229754
0.00728559
0.00240532
0.00727494
0.0027104
0.00726018
0.00282736
0.00724091
0.0031298
0.00721882
0.00299174
0.00719206
0.0031954
0.00716366
0.00268698
0.00712877
0.00267543
0.00709431
0.00161254
0.00704954
0.0011337
0.00701066
-0.000782251
0.0069517
-0.00234593
0.00690675
-0.00542566
0.00679927
-0.00851972
-0.0126767
0.00750037
0.0263457
0.00746243
0.0221415
0.00744541
0.0176601
0.00742427
0.0121988
0.00738941
0.00526059
0.00733957
-0.00184082
0.00728194
-0.00806315
0.00723006
-0.012375
0.00719831
-0.0142319
0.00719306
-0.0136659
0.00720377
-0.0116309
0.00721621
-0.00961157
0.00722517
-0.00818662
0.00723267
-0.00727389
0.00724017
-0.00650712
0.00724825
-0.00588608
0.00725623
-0.00523482
0.00726425
-0.00474573
0.00727151
-0.00417428
0.00727846
-0.003787
0.00728418
-0.00325598
0.00728947
-0.00295614
0.00729308
-0.00240958
0.0072964
-0.00222263
0.00729767
-0.00165142
0.00729899
-0.00158079
0.00729786
-0.000960793
0.0072974
-0.00104121
0.00729393
-0.000317491
0.00729214
-0.000625336
0.00728656
0.000264153
0.00728393
-0.00030858
0.0072761
0.000836084
0.00727272
-0.000102629
0.00726204
0.00138133
0.00725787
-2.98426e-05
0.0072436
0.00189585
0.00723789
-0.00015076
0.0072175
0.00226089
0.0072077
-0.000721813
0.00718197
0.00173628
0.00717519
-0.00276651
0.00715917
-0.000743037
0.00717352
-0.00666873
0.00718707
-0.0043025
0.00724183
-0.00978817
0.00729027
-0.00356822
0.00735202
-0.00444852
0.00736008
0.00593849
0.00739407
0.00699405
0.00743441
0.015504
0.00754696
0.0367185
0.00770914
0.0611425
0.00788974
-0.0189071
0.00791511
-0.0498805
0.00787703
-0.0258014
0.00776096
0.000165636
0.00764453
0.0035217
0.00753003
0.00939701
0.00745576
0.00222729
0.00741603
0.00364225
0.00740722
-0.00162594
0.00740334
0.00100903
0.00741059
-0.00272156
0.00741963
-0.000586513
0.0074369
-0.00318083
0.00745006
-0.00114102
0.00746478
-0.00252452
0.00747325
-0.000443365
0.00748067
-0.000916958
0.00748033
0.00101042
0.00747741
0.00105511
0.00746712
0.00272007
0.00745315
0.00302984
0.00743209
0.00429832
0.00740766
0.00445583
0.00737953
0.00498356
0.00735259
0.00459636
0.00732889
0.00430371
0.00731194
0.00353553
0.00730133
0.00302056
0.00729612
0.00250676
0.0072932
0.00229851
0.0072899
0.00230085
0.00728375
0.00241147
0.0072733
0.00272085
0.00725868
0.00284199
0.0072395
0.00314897
0.00721745
0.00301379
0.00719068
0.00322217
0.00716224
0.00271542
0.00712727
0.00271041
0.00709266
0.00164715
0.00704762
0.00117874
0.00700831
-0.000742944
0.00694825
-0.00228587
0.00690171
-0.00537912
0.0067907
-0.0084087
-0.0125769
0.00750092
0.0264205
0.007464
0.0221784
0.00744821
0.0176759
0.00742795
0.012219
0.00739329
0.00529526
0.00734289
-0.00179042
0.00728398
-0.00800425
0.00723033
-0.0123214
0.00719673
-0.0141983
0.00719017
-0.0136593
0.00720036
-0.0116411
0.00721269
-0.00962391
0.00722155
-0.00819548
0.00722891
-0.00728125
0.00723627
-0.00651448
0.00724423
-0.00589404
0.00725212
-0.00524271
0.00726008
-0.00475368
0.00726728
-0.00418149
0.00727419
-0.00379391
0.00727986
-0.00326166
0.00728513
-0.00296141
0.00728871
-0.00241316
0.00729201
-0.00222593
0.00729327
-0.00165267
0.00729457
-0.0015821
0.00729343
-0.000959646
0.00729296
-0.00104074
0.00728948
-0.000314016
0.00728769
-0.000623545
0.00728211
0.000269735
0.00727948
-0.000305956
0.00727166
0.000843907
0.0072683
-9.92731e-05
0.00725763
0.001392
0.00725349
-2.56958e-05
0.00723924
0.0019101
0.00723357
-0.000145097
0.00721321
0.00228126
0.00720339
-0.000711998
0.00717751
0.00176216
0.00717048
-0.00275948
0.00715404
-0.000726595
0.00716785
-0.00668254
0.00718076
-0.00431542
0.00723501
-0.00984242
0.00728399
-0.00361721
0.00734701
-0.00451154
0.0073563
0.00592921
0.00739059
0.00695976
0.00743118
0.0154634
0.00754609
0.0366036
0.00771218
0.0609764
0.00789274
-0.0190876
0.00791623
-0.049904
0.00787888
-0.025764
0.00776475
0.000279769
0.00764983
0.00363661
0.00753604
0.0095108
0.00745934
0.00230399
0.00741713
0.00368446
0.00740522
-0.00161403
0.00740069
0.00101356
0.0074065
-0.00272736
0.00741582
-0.000595833
0.00743299
-0.003198
0.00744707
-0.00115511
0.00746202
-0.00253947
0.00747115
-0.000452494
0.00747888
-0.000924694
0.0074791
0.0010102
0.00747651
0.0010577
0.00746663
0.00272995
0.00745294
0.00304353
0.00743215
0.00431911
0.00740783
0.00448015
0.00737963
0.00501176
0.00735236
0.00462363
0.00732817
0.00432791
0.00731065
0.00355304
0.00729957
0.00303164
0.00729408
0.00251225
0.0072911
0.00230149
0.00728791
0.00230404
0.00728196
0.00241741
0.00727172
0.00273109
0.00725726
0.00285645
0.0072382
0.00316803
0.00721619
0.00303581
0.00718944
0.00324891
0.00716097
0.00274389
0.00712593
0.00274545
0.00709119
0.00168189
0.00704588
0.00122405
0.00700615
-0.000703213
0.00694498
-0.0022247
0.00689684
-0.00533098
0.00678233
-0.00829419
-0.0124737
0.00750148
0.0264948
0.0074656
0.0222143
0.00745107
0.0176905
0.00743172
0.0122384
0.00739726
0.00532972
0.0073463
-0.00173946
0.00728612
-0.00794406
0.00723066
-0.0122659
0.00719517
-0.0141628
0.00718727
-0.0136514
0.00719692
-0.0116508
0.00720915
-0.00963613
0.00721793
-0.00820425
0.00722514
-0.00728846
0.00723236
-0.0065217
0.00724021
-0.00590189
0.00724802
-0.00525052
0.0072559
-0.00476156
0.00726305
-0.00418864
0.00726991
-0.00380076
0.00727555
-0.0032673
0.00728079
-0.00296664
0.00728435
-0.00241673
0.00728763
-0.00222922
0.00728887
-0.0016539
0.00729017
-0.0015834
0.00728901
-0.000958487
0.00728853
-0.00104027
0.00728505
-0.000310532
0.00728326
-0.000621758
0.00727768
0.000275318
0.00727507
-0.000303343
0.00726725
0.00085172
0.00726392
-9.59413e-05
0.00725327
0.00140266
0.00724915
-2.15806e-05
0.00723493
0.00192432
0.00722932
-0.000139491
0.00720898
0.0023016
0.00719916
-0.000702175
0.00717314
0.00178818
0.00716585
-0.00275219
0.00714897
-0.000709723
0.00716221
-0.00669577
0.00717444
-0.00432766
0.00722811
-0.00989608
0.00727761
-0.00366671
0.00734195
-0.00457587
0.00735256
0.0059186
0.00738719
0.00692513
0.007428
0.0154226
0.0075452
0.0364864
0.00771511
0.0608065
0.00789552
-0.019268
0.00791718
-0.0499257
0.00788075
-0.0257276
0.00776878
0.000391742
0.00765557
0.00374982
0.00754268
0.00962369
0.00746364
0.00238303
0.00741885
0.00372925
0.00740346
-0.00159864
0.0073981
0.00101891
0.00740214
-0.0027314
0.00741171
-0.0006054
0.00742867
-0.00321496
0.00744383
-0.00117027
0.00745904
-0.00255467
0.00746896
-0.000462414
0.00747705
-0.000932788
0.00747793
0.00100933
0.00747571
0.00105992
0.00746629
0.00273937
0.00745292
0.00305691
0.00743244
0.00433958
0.00740824
0.00450435
0.00738
0.00504
0.0073524
0.00465122
0.00732768
0.00435263
0.00730954
0.00357118
0.00729793
0.00304324
0.00729212
0.00251807
0.00728905
0.00230455
0.00728596
0.00230713
0.00728022
0.00242315
0.00727022
0.00274109
0.00725594
0.00287073
0.00723702
0.00318696
0.00721506
0.00305776
0.00718834
0.00327563
0.00715985
0.00277239
0.00712475
0.00278054
0.00708989
0.00171675
0.00704434
0.0012696
0.00700419
-0.00066306
0.00694192
-0.00216243
0.00689215
-0.00528121
0.00677418
-0.00817622
-0.0123672
0.00750206
0.0265685
0.00746724
0.0222491
0.00745398
0.0177037
0.00743557
0.0122568
0.00740134
0.00536395
0.00734983
-0.00168795
0.00728834
-0.00788258
0.00723106
-0.0122086
0.00719364
-0.0141254
0.00718436
-0.0136421
0.00719347
-0.0116599
0.0072056
-0.00964826
0.00721429
-0.00821295
0.00722137
-0.00729554
0.00722845
-0.00652878
0.00723618
-0.00590963
0.0072439
-0.00525823
0.00725172
-0.00476938
0.00725882
-0.00419574
0.00726564
-0.00380758
0.00727124
-0.00327291
0.00727645
-0.00297185
0.00727999
-0.00242026
0.00728326
-0.00223249
0.00728448
-0.00165512
0.00728577
-0.00158469
0.00728461
-0.000957322
0.00728413
-0.00103979
0.00728065
-0.000307049
0.00727886
-0.000619973
0.00727328
0.000280898
0.00727068
-0.000300745
0.00726289
0.000859519
0.00725958
-9.2638e-05
0.00724895
0.00141329
0.00724487
-1.75019e-05
0.00723067
0.00193852
0.00722513
-0.000133946
0.00720483
0.0023219
0.007195
-0.000692355
0.00716884
0.00181434
0.00716129
-0.00274464
0.00714398
-0.000692407
0.0071566
-0.0067084
0.00716812
-0.00433917
0.00722112
-0.00994909
0.00727111
-0.00371671
0.0073368
-0.00464156
0.00734886
0.00590654
0.00738386
0.00689013
0.00742488
0.0153816
0.0075443
0.036367
0.00771792
0.0606328
0.00789806
-0.0194482
0.00791794
-0.0499455
0.00788263
-0.0256923
0.00777306
0.000501315
0.00766175
0.00386112
0.00754997
0.00973548
0.00746871
0.00246429
0.00742129
0.00377668
0.00740204
-0.00157939
0.00739562
0.00102533
0.00739751
-0.00273329
0.00740725
-0.00061515
0.00742388
-0.00323158
0.00744028
-0.00118667
0.00745579
-0.00257018
0.00746666
-0.00047328
0.00747516
-0.00094129
0.00747679
0.0010077
0.007475
0.00106171
0.00746612
0.00274824
0.00745311
0.00306992
0.00743298
0.00435971
0.00740894
0.0045284
0.00738066
0.00506828
0.00735273
0.00467915
0.00732745
0.00437791
0.00730863
0.00359
0.00729643
0.00305544
0.00729024
0.00252426
0.00728705
0.00230774
0.00728405
0.00231013
0.00727853
0.00242866
0.00726879
0.00275083
0.00725472
0.00288479
0.00723594
0.00320574
0.00721407
0.00307964
0.0071874
0.0033023
0.00715889
0.00280089
0.00712376
0.00281566
0.00708879
0.00175172
0.00704301
0.00131538
0.00700244
-0.000622488
0.00693907
-0.00209906
0.00688767
-0.00522982
0.00676629
-0.00805483
-0.0122572
0.00750265
0.0266416
0.00746892
0.0222828
0.00745697
0.0177157
0.00743952
0.0122743
0.00740552
0.00539795
0.00735346
-0.00163589
0.00729067
-0.00781979
0.00723154
-0.0121495
0.00719215
-0.014086
0.00718145
-0.0136315
0.00718999
-0.0116684
0.00720202
-0.00966029
0.00721065
-0.00822157
0.00721759
-0.00730249
0.00722453
-0.00653571
0.00723215
-0.00591726
0.00723979
-0.00526587
0.00724754
-0.00477713
0.00725458
-0.00420278
0.00726136
-0.00381436
0.00726694
-0.00327848
0.00727212
-0.00297703
0.00727564
-0.00242378
0.0072789
-0.00223575
0.00728011
-0.00165633
0.00728139
-0.00158597
0.00728023
-0.000956154
0.00727975
-0.00103931
0.00727627
-0.000303564
0.00727449
-0.000618195
0.00726892
0.000286471
0.00726633
-0.000298163
0.00725856
0.000867296
0.00725529
-8.93695e-05
0.00724468
0.0014239
0.00724064
-1.34643e-05
0.00722648
0.00195268
0.007221
-0.00012847
0.00720075
0.00234216
0.00719093
-0.000682544
0.00716464
0.00184064
0.00715682
-0.00273682
0.00713905
-0.000674632
0.00715104
-0.00672039
0.00716178
-0.00434991
0.00721405
-0.0100013
0.00726449
-0.00376715
0.00733156
-0.00470863
0.00734519
0.00589291
0.0073806
0.00685472
0.00742182
0.0153404
0.0075434
0.0362454
0.0077206
0.0604556
0.00790037
-0.0196279
0.00791851
-0.0499637
0.00788451
-0.0256583
0.00777758
0.000608243
0.00766838
0.00397032
0.0075579
0.00984596
0.0074746
0.00254758
0.00742453
0.00382675
0.00740107
-0.00155593
0.00739332
0.00103308
0.00739261
-0.00273258
0.00740243
-0.00062497
0.00741852
-0.00324768
0.00743635
-0.0012045
0.0074522
-0.00258603
0.0074642
-0.000485277
0.00747317
-0.000950259
0.00747568
0.00100518
0.00747438
0.00106302
0.00746612
0.00275651
0.00745351
0.00308253
0.00743379
0.00437943
0.00740993
0.00455225
0.00738165
0.00509656
0.00735338
0.00470743
0.0073275
0.00440379
0.00730794
0.00360956
0.00729509
0.00306828
0.00728845
0.00253091
0.0072851
0.00231109
0.00728219
0.00231304
0.00727691
0.00243395
0.00726744
0.0027603
0.0072536
0.00289863
0.007235
0.00322434
0.00721322
0.00310142
0.00718661
0.00332891
0.00715811
0.00282939
0.00712296
0.00285081
0.0070879
0.00178679
0.0070419
0.00136138
0.00700091
-0.0005815
0.00693645
-0.0020346
0.00688342
-0.0051768
0.00675868
-0.00793008
-0.012144
0.00750325
0.0267141
0.00747063
0.0223154
0.00746001
0.0177263
0.00744355
0.0122907
0.0074098
0.0054317
0.0073572
-0.00158329
0.00729309
-0.00775568
0.00723208
-0.0120885
0.00719069
-0.0140446
0.00717854
-0.0136193
0.00718649
-0.0116764
0.00719843
-0.00967223
0.00720699
-0.00823014
0.0072138
-0.0073093
0.0072206
-0.00654252
0.00722812
-0.00592477
0.00723567
-0.00527342
0.00724335
-0.00478481
0.00725035
-0.00420978
0.00725709
-0.0038211
0.00726264
-0.00328403
0.0072678
-0.00298219
0.0072713
-0.00242728
0.00727454
-0.002239
0.00727575
-0.00165754
0.00727703
-0.00158726
0.00727586
-0.000954984
0.00727539
-0.00103884
0.00727191
-0.000300086
0.00727014
-0.000616426
0.00726458
0.000292031
0.00726202
-0.000295606
0.00725427
0.000875051
0.00725104
-8.61362e-05
0.00724046
0.00143448
0.00723647
-9.47235e-06
0.00722235
0.0019668
0.00721695
-0.000123069
0.00719675
0.00236236
0.00718695
-0.00067275
0.00716053
0.00186706
0.00715244
-0.00272873
0.00713419
-0.000656385
0.00714552
-0.00673171
0.00715544
-0.00435984
0.00720688
-0.0100528
0.00725773
-0.003818
0.00732621
-0.00477711
0.00734156
0.00587756
0.00737742
0.00681886
0.00741882
0.015299
0.00754248
0.0361217
0.00772315
0.060275
0.00790241
-0.0198072
0.00791885
-0.0499801
0.00788637
-0.0256258
0.00778235
0.000712266
0.00767545
0.00407722
0.00756648
0.00995492
0.00748134
0.00263273
0.00742864
0.00387944
0.00740069
-0.00152797
0.00739128
0.00104249
0.00738749
-0.00272878
0.00739721
-0.000634689
0.00741253
-0.003263
0.00743194
-0.0012239
0.00744818
-0.00260228
0.00746153
-0.000498626
0.00747103
-0.000959764
0.00747459
0.00100162
0.00747384
0.00106376
0.0074663
0.00276405
0.00745415
0.00309468
0.00743489
0.00439868
0.00741126
0.00457588
0.007383
0.00512483
0.00735438
0.00473605
0.00732787
0.0044303
0.00730751
0.00362993
0.00729393
0.00308186
0.00728678
0.00253805
0.00728323
0.00231464
0.00728039
0.00231589
0.00727534
0.002439
0.00726617
0.00276947
0.00725259
0.00291222
0.00723419
0.00324274
0.00721252
0.00312308
0.007186
0.00335543
0.00715752
0.00285788
0.00712237
0.00288595
0.00708722
0.00182194
0.00704102
0.00140758
0.00699963
-0.000540104
0.00693409
-0.00196906
0.00687942
-0.00512213
0.00675139
-0.00780204
-0.0120274
0.00750388
0.026786
0.00747238
0.0223469
0.00746313
0.0177356
0.00744768
0.0123062
0.0074142
0.00546517
0.00736105
-0.00153014
0.00729562
-0.00769024
0.00723271
-0.0120256
0.00718927
-0.0140011
0.00717563
-0.0136057
0.00718297
-0.0116837