/*--------------------------------*- C++ -*----------------------------------*\
| =========                 |                                                 |
| \\      /  F ield         | OpenFOAM: The Open Source CFD Toolbox           |
|  \\    /   O peration     | Version:  2412                                  |
|   \\  /    A nd           | Website:  www.openfoam.com                      |
|    \\/     M anipulation  |                                                 |
\*---------------------------------------------------------------------------*/
FoamFile
{
    version     2.0;
    format      ascii;
    arch        "LSB;label=32;scalar=64";
    class       volVectorField;
    location    "0.4";
    object      U;
}
// * * * * * * * * * * * * * * * * * * * * * * * * * * * * * * * * * * * * * //

dimensions      [0 1 -1 0 0 0 0];

internalField   nonuniform List<vector> 
13077
(
(100.043 -1.62946 0)
(100.684 -4.41083 8.35888e-17)
(101.738 -7.53939 -7.96828e-17)
(102.965 -11.4873 0)
(104.077 -16.438 0)
(105.133 -21.5044 0)
(106.067 -25.9244 0)
(107.114 -29.0308 0)
(108.412 -30.4932 0)
(110.163 -30.4099 -1.09104e-16)
(112.274 -29.4922 0)
(114.493 -28.6768 0)
(116.747 -28.2906 0)
(119.025 -28.2387 -7.28545e-17)
(121.431 -28.3033 0)
(123.896 -28.4813 0)
(126.529 -28.687 6.61728e-17)
(129.2 -29.0027 6.45291e-17)
(132.074 -29.3153 2.95576e-21)
(134.957 -29.7518 6.13343e-17)
(138.095 -30.1497 0)
(141.203 -30.7032 5.80556e-17)
(144.644 -31.1751 -5.64773e-17)
(147.996 -31.8547 -5.46749e-17)
(151.792 -32.3948 0)
(155.412 -33.2214 0)
(159.639 -33.8257 -4.96309e-17)
(163.556 -34.8309 4.7639e-17)
(168.317 -35.4957 3.22014e-21)
(172.566 -36.7211 8.79936e-17)
(178 -37.4394 0)
(182.616 -38.9364 0)
(188.91 -39.6949 0)
(193.915 -41.5248 3.64224e-17)
(201.308 -42.3165 -3.52207e-17)
(206.706 -44.56 0)
(215.525 -45.4008 3.15052e-17)
(221.303 -48.148 0)
(231.94 -49.1244 -2.76691e-17)
(100.044 -1.64801 0)
(100.695 -4.45454 1.1144e-20)
(101.764 -7.59979 7.97027e-17)
(103.005 -11.5508 -7.9037e-17)
(104.123 -16.4979 0)
(105.177 -21.5585 0)
(106.098 -25.9752 0)
(107.125 -29.0848 -1.07481e-16)
(108.397 -30.557 0)
(110.126 -30.486 1.09341e-16)
(112.225 -29.575 0)
(114.441 -28.7602 8.66161e-17)
(116.692 -28.3731 0)
(118.966 -28.3218 -3.01858e-21)
(121.368 -28.3877 0)
(123.83 -28.5674 0)
(126.459 -28.7746 6.61997e-17)
(129.128 -29.0921 0)
(131.998 -29.4061 -6.30074e-17)
(134.879 -29.8443 3.25859e-21)
(138.014 -30.2436 0)
(141.12 -30.799 -5.8077e-17)
(144.558 -31.2723 -3.14183e-21)
(147.907 -31.9541 0)
(151.7 -32.4956 0)
(155.318 -33.3248 0)
(159.541 -33.9305 -4.96666e-17)
(163.456 -34.9391 0)
(168.212 -35.6054 -4.61491e-17)
(172.458 -36.8349 -4.40362e-17)
(177.888 -37.5547 -4.25897e-17)
(182.5 -39.0571 4.0321e-17)
(188.791 -39.8168 3.89707e-17)
(193.791 -41.6533 -3.64728e-17)
(201.181 -42.4458 0)
(206.573 -44.6974 3.2497e-17)
(215.388 -45.5382 -6.31372e-17)
(221.159 -48.2949 -2.83814e-17)
(231.792 -49.2702 5.54838e-17)
(237.864 -52.7319 -5.6997e-21)
(250.836 -54.2263 0)
(257.414 -58.8002 1.92702e-17)
(273.867 -61.3567 0)
(281.905 -67.2075 2.9743e-17)
(303.671 -70.713 -3.4594e-17)
(314.713 -76.9186 1.09439e-17)
(344.21 -79.6983 -7.32861e-21)
(358.804 -83.8125 0)
(395.49 -85.7158 0)
(411.417 -88.8278 8.15348e-19)
(459.892 -94.49 -6.20158e-18)
(487.152 -86.4914 0)
(557.09 -94.2578 -1.61287e-18)
(618.576 -2.27 0)
(576.091 46.6848 -1.38792e-18)
(555.433 62.816 1.44271e-17)
(507.36 72.1461 2.66306e-18)
(482.719 70.8048 1.32785e-17)
(443.043 68.9826 6.89999e-18)
(424.468 61.8876 6.05498e-18)
(397.464 59.0941 9.97687e-18)
(385.339 54.0887 0)
(365.301 52.9325 1.22036e-17)
(354.664 49.0421 9.43933e-18)
(338.727 48.1451 0)
(329.319 45.1503 -1.4732e-17)
(316.31 44.5893 -1.89259e-17)
(307.622 42.4583 0)
(296.593 42.1881 -4.78562e-21)
(100.045 -1.66686 0)
(100.706 -4.49891 -1.67134e-16)
(101.789 -7.661 -7.97025e-17)
(103.046 -11.6148 7.9055e-17)
(104.17 -16.558 0)
(105.222 -21.6124 0)
(106.131 -26.0254 -9.87054e-17)
(107.136 -29.1379 1.07609e-16)
(108.383 -30.6199 0)
(110.088 -30.5613 0)
(112.175 -29.6573 0)
(114.387 -28.8435 -8.6754e-17)
(116.636 -28.4555 7.80434e-17)
(118.906 -28.4046 7.29441e-17)
(121.305 -28.4718 0)
(123.763 -28.6534 0)
(126.389 -28.8621 -6.62241e-17)
(129.055 -29.1813 0)
(131.923 -29.4967 0)
(134.801 -29.9367 3.24153e-21)
(137.933 -30.3373 5.98246e-17)
(141.037 -30.8947 5.8108e-17)
(144.471 -31.3693 5.65278e-17)
(147.818 -32.0534 0)
(151.608 -32.5962 0)
(155.223 -33.4281 0)
(159.443 -34.0353 -3.23847e-21)
(163.355 -35.0472 0)
(168.108 -35.7149 4.61935e-17)
(172.351 -36.9487 0)
(177.777 -37.6699 4.26343e-17)
(182.386 -39.1776 4.76301e-21)
(188.672 -39.9386 -3.90229e-17)
(193.668 -41.7817 0)
(201.053 -42.5749 3.53428e-17)
(206.441 -44.8346 -3.25598e-17)
(215.251 -45.6757 3.16382e-17)
(221.016 -48.4418 5.69118e-17)
(231.646 -49.4162 -2.78216e-17)
(237.707 -52.8883 2.39914e-17)
(250.673 -54.3826 -2.38417e-17)
(257.231 -58.9713 1.93686e-17)
(273.672 -61.534 2.01719e-17)
(281.678 -67.4057 -1.49791e-17)
(303.425 -70.9258 -2.17568e-21)
(314.427 -77.1592 -1.10781e-17)
(343.925 -79.9569 1.59057e-17)
(358.535 -84.0948 -6.06853e-18)
(395.272 -86.007 -1.15504e-17)
(411.179 -89.1494 -8.24281e-19)
(459.671 -94.8623 6.24971e-18)
(486.929 -86.9273 0)
(557.199 -94.8903 1.61143e-18)
(619.037 -2.34413 0)
(576.273 46.9832 -1.85173e-20)
(555.539 63.1583 -2.81391e-22)
(507.477 72.5181 2.68752e-18)
(482.878 71.1687 0)
(443.211 69.3217 0)
(424.55 62.1676 0)
(397.412 59.3198 0)
(385.228 54.2796 -3.52682e-18)
(365.176 53.1143 -1.32015e-17)
(354.533 49.2079 0)
(338.599 48.3058 0)
(329.202 45.301 0)
(316.209 44.7399 2.02239e-17)
(307.529 42.6026 0)
(296.51 42.3329 -2.25156e-17)
(288.348 40.8608 0)
(278.649 40.6868 -2.38499e-17)
(270.85 39.5882 -2.37774e-17)
(262.136 39.3895 0)
(254.698 38.5078 -2.4724e-17)
(246.715 38.1578 0)
(239.624 37.2287 0)
(232.301 36.5067 0)
(225.751 35.3106 2.81676e-17)
(219.284 34.2136 -2.93264e-17)
(213.587 32.9257 -3.02106e-17)
(208.107 31.8285 3.1084e-17)
(203.246 30.8163 3.17537e-17)
(198.489 30.0047 0)
(194.127 29.3764 3.30552e-17)
(189.708 28.8008 3.3755e-17)
(185.566 28.3891 0)
(181.281 27.8256 -3.53489e-17)
(177.31 27.4458 -3.6253e-17)
(173.129 26.7458 3.70031e-17)
(169.383 26.3235 3.79483e-17)
(165.264 25.3951 3.86415e-17)
(161.795 24.8659 0)
(157.618 23.5755 9.40603e-22)
(154.535 22.7842 -4.15683e-17)
(150.102 20.9137 0)
(147.695 19.4894 0)
(142.616 16.808 0)
(141.385 14.4055 0)
(134.026 10.6807 -6.46988e-17)
(100.046 -1.68603 0)
(100.717 -4.54394 8.35522e-17)
(101.815 -7.72308 7.97217e-17)
(103.088 -11.6797 7.90875e-17)
(104.218 -16.6186 0)
(105.269 -21.6665 8.97132e-17)
(106.164 -26.0752 9.8787e-17)
(107.149 -29.1902 -1.07742e-16)
(108.369 -30.6818 -1.12796e-16)
(110.05 -30.6358 0)
(112.125 -29.7392 -9.91869e-17)
(114.334 -28.9264 0)
(116.58 -28.5375 -1.56256e-16)
(118.847 -28.4872 0)
(121.242 -28.5557 0)
(123.696 -28.739 -6.79425e-17)
(126.319 -28.9493 0)
(128.982 -29.2703 0)
(131.847 -29.5871 6.3066e-17)
(134.723 -30.0289 -6.14109e-17)
(137.852 -30.4308 -5.98513e-17)
(140.953 -30.9902 3.452e-21)
(144.385 -31.4661 5.65622e-17)
(147.73 -32.1525 0)
(151.517 -32.6966 -5.31874e-17)
(155.129 -33.5313 0)
(159.346 -34.1398 4.97382e-17)
(163.255 -35.1551 0)
(168.004 -35.8243 -4.62356e-17)
(172.244 -37.0623 0)
(177.666 -37.785 0)
(182.271 -39.2981 -4.04273e-17)
(188.553 -40.0603 0)
(193.546 -41.91 0)
(200.927 -42.704 -3.54086e-17)
(206.309 -44.9719 3.26398e-17)
(215.116 -45.8131 0)
(220.875 -48.5888 5.82733e-21)
(231.501 -49.5621 2.7912e-17)
(237.552 -53.0448 0)
(250.512 -54.539 2.39391e-17)
(257.05 -59.1423 -1.94648e-17)
(273.479 -61.7111 -4.05809e-17)
(281.451 -67.6034 0)
(303.18 -71.138 -2.39172e-21)
(314.138 -77.3986 1.12415e-17)
(343.636 -80.2146 1.61835e-17)
(358.264 -84.3769 1.23819e-17)
(395.056 -86.2986 1.17431e-17)
(410.945 -89.4718 0)
(459.453 -95.2352 0)
(486.707 -87.3647 -7.95492e-18)
(557.306 -95.5254 0)
(619.488 -2.41868 1.08885e-18)
(576.442 47.2815 7.29334e-19)
(555.641 63.5005 7.55421e-24)
(507.603 72.8912 -5.66281e-21)
(483.056 71.5351 -1.38201e-17)
(443.404 69.665 0)
(424.659 62.453 6.81045e-18)
(397.374 59.5488 1.16377e-17)
(385.122 54.4719 5.51754e-21)
(365.051 53.2961 -1.43585e-17)
(354.398 49.3733 -1.1067e-17)
(338.467 48.4656 -1.8122e-17)
(329.081 45.4509 0)
(316.105 44.8899 0)
(307.435 42.7465 0)
(296.426 42.4774 0)
(288.274 41.0023 0)
(278.587 40.8303 4.84661e-21)
(270.796 39.7297 1.82789e-21)
(262.089 39.5325 0)
(254.658 38.6497 2.56742e-17)
(246.68 38.3007 0)
(239.592 37.3698 2.68626e-17)
(232.268 36.6457 0)
(225.713 35.4438 2.89028e-17)
(219.238 34.3396 3.00611e-17)
(213.531 33.0428 3.0936e-17)
(208.045 31.938 -3.17877e-17)
(203.181 30.9197 -3.24285e-17)
(198.424 30.1048 -3.30453e-17)
(194.066 29.4752 -6.7303e-17)
(189.652 28.9001 -3.43111e-17)
(185.515 28.4896 0)
(181.234 27.9268 3.58455e-17)
(177.264 27.5479 7.42385e-22)
(173.085 26.8474 -3.74642e-17)
(169.338 26.426 -3.83961e-17)
(165.219 25.4963 -3.9084e-17)
(161.747 24.9689 0)
(157.569 23.6757 9.76743e-22)
(154.481 22.8883 4.20301e-17)
(150.041 21.0101 -4.2738e-17)
(147.625 19.5945 4.5298e-17)
(142.511 16.8949 0)
(141.26 14.5236 0)
(133.777 10.7702 6.57842e-17)
(100.047 -1.70553 0)
(100.729 -4.58963 8.35541e-17)
(101.842 -7.78601 -1.59451e-16)
(103.131 -11.7452 -7.91052e-17)
(104.268 -16.6795 -8.26539e-17)
(105.316 -21.7204 -8.97704e-17)
(106.199 -26.1244 0)
(107.162 -29.2415 1.07868e-16)
(108.355 -30.7426 1.12988e-16)
(110.013 -30.7094 0)
(112.075 -29.8206 9.94033e-17)
(114.28 -29.0091 0)
(116.524 -28.6194 1.56441e-16)
(118.787 -28.5695 0)
(121.178 -28.6394 0)
(123.629 -28.8245 -2.9629e-21)
(126.249 -29.0363 0)
(128.909 -29.3591 -6.46468e-17)
(131.771 -29.6773 -6.30964e-17)
(134.644 -30.1209 0)
(137.771 -30.5241 0)
(140.87 -31.0855 -5.81694e-17)
(144.299 -31.5628 3.14487e-21)
(147.641 -32.2514 5.48058e-17)
(151.425 -32.7969 1.06448e-16)
(155.035 -33.6343 0)
(159.248 -34.2442 0)
(163.154 -35.2629 0)
(167.9 -35.9335 4.62888e-17)
(172.137 -37.1759 -4.4191e-17)
(177.555 -37.8999 4.27477e-17)
(182.157 -39.4184 4.04958e-17)
(188.435 -40.1819 -3.91531e-17)
(193.424 -42.0382 3.66776e-17)
(200.801 -42.833 0)
(206.179 -45.1091 -3.27157e-17)
(214.982 -45.9505 3.18034e-17)
(220.734 -48.7357 -2.86296e-17)
(231.358 -49.7081 -5.60154e-17)
(237.399 -53.2014 -2.41917e-17)
(250.353 -54.6955 0)
(256.871 -59.3133 0)
(273.288 -61.8881 -8.91953e-22)
(281.226 -67.8008 1.52363e-17)
(302.936 -71.3496 -2.59513e-21)
(313.848 -77.6371 -2.28111e-17)
(343.344 -80.4714 -1.64699e-17)
(357.99 -84.6585 -6.32533e-18)
(394.841 -86.5906 0)
(410.716 -89.7948 0)
(459.237 -95.6086 0)
(486.486 -87.8037 7.99168e-18)
(557.411 -96.1631 0)
(619.928 -2.49361 -1.08884e-18)
(576.598 47.5796 0)
(555.741 63.8425 2.41403e-22)
(507.738 73.2652 -5.51528e-18)
(483.253 71.904 1.41217e-17)
(443.623 70.0122 0)
(424.796 62.744 1.43902e-21)
(397.353 59.7814 -1.26622e-17)
(385.02 54.6656 4.23449e-18)
(364.924 53.4778 3.15066e-17)
(354.259 49.5383 2.42502e-17)
(338.329 48.6244 1.97788e-17)
(328.954 45.6 1.86012e-17)
(315.998 45.0391 0)
(307.339 42.8902 0)
(296.343 42.6217 -2.57778e-17)
(288.201 41.1438 0)
(278.526 40.9739 5.55827e-21)
(270.744 39.8715 2.63291e-17)
(262.047 39.6758 0)
(254.622 38.7921 -2.67755e-17)
(246.651 38.4442 0)
(239.565 37.5117 -2.77711e-17)
(232.241 36.7856 0)
(225.68 35.5779 -2.24103e-21)
(219.196 34.4664 3.08932e-17)
(213.479 33.1606 0)
(207.985 32.0479 3.25958e-17)
(203.117 31.0233 3.3202e-17)
(198.361 30.2049 3.37741e-17)
(194.007 29.5741 3.43303e-17)
(189.598 28.9994 4.6002e-22)
(185.465 28.5901 3.56828e-17)
(181.188 28.0281 -3.6407e-17)
(177.22 27.6501 3.72673e-17)
(173.043 26.9494 7.59683e-17)
(169.295 26.5288 1.54936e-21)
(165.176 25.5979 3.95829e-17)
(161.702 25.0725 0)
(157.522 23.7763 4.12481e-17)
(154.43 22.9931 0)
(149.982 21.1072 4.32911e-17)
(147.558 19.7007 -4.59311e-17)
(142.408 16.983 0)
(141.137 14.6442 0)
(133.53 10.8621 0)
(100.048 -1.72536 0)
(100.741 -4.63602 -1.67077e-16)
(101.869 -7.84982 1.59468e-16)
(103.175 -11.8116 0)
(104.318 -16.7408 8.26896e-17)
(105.365 -21.7742 0)
(106.235 -26.1732 9.89627e-17)
(107.177 -29.292 1.08e-16)
(108.342 -30.8024 0)
(109.975 -30.7823 0)
(112.025 -29.9016 -9.96304e-17)
(114.226 -29.0916 -8.7213e-17)
(116.467 -28.7011 -7.83177e-17)
(118.727 -28.6517 7.31255e-17)
(121.114 -28.7228 -7.01251e-17)
(123.562 -28.9098 1.36045e-16)
(126.179 -29.1231 0)
(128.836 -29.4477 6.46825e-17)
(131.695 -29.7673 -6.3137e-17)
(134.566 -30.2128 -6.14849e-17)
(137.69 -30.6173 0)
(140.786 -31.1807 0)
(144.213 -31.6593 3.16246e-21)
(147.552 -32.3502 -1.09689e-16)
(151.333 -32.8971 3.24316e-21)
(154.941 -33.7372 0)
(159.151 -34.3485 -4.98325e-17)
(163.054 -35.3706 0)
(167.797 -36.0426 -4.63405e-17)
(172.031 -37.2893 4.42467e-17)
(177.445 -38.0148 -4.28079e-17)
(182.044 -39.5387 -4.05606e-17)
(188.318 -40.3034 -3.08809e-21)
(193.303 -42.1664 -3.67519e-17)
(200.676 -42.962 0)
(206.049 -45.2463 3.28104e-17)
(214.848 -46.0879 -6.37907e-17)
(220.595 -48.8828 0)
(231.216 -49.8541 2.81125e-17)
(237.248 -53.3581 2.42964e-17)
(250.197 -54.852 0)
(256.694 -59.4843 0)
(273.099 -62.0649 -1.00467e-21)
(281.002 -67.9979 6.14776e-21)
(302.692 -71.5606 1.80043e-17)
(313.556 -77.8745 -9.303e-21)
(343.048 -80.7272 -1.67992e-17)
(357.713 -84.9396 0)
(394.627 -86.883 1.22313e-17)
(410.491 -90.1186 8.11951e-19)
(459.025 -95.9826 0)
(486.265 -88.2442 0)
(557.513 -96.8032 1.59127e-18)
(620.357 -2.56887 -1.09694e-18)
(576.741 47.8773 0)
(555.837 64.1841 -1.50849e-17)
(507.882 73.6399 6.47959e-21)
(483.468 72.2753 0)
(443.869 70.3636 7.86574e-18)
(424.963 63.0412 4.16496e-22)
(397.352 60.0181 0)
(384.925 54.8614 -4.67184e-18)
(364.797 53.6595 -1.74084e-17)
(354.115 49.7029 -1.33874e-17)
(338.185 48.782 2.17371e-17)
(328.821 45.748 -2.04265e-17)
(315.887 45.1875 2.5765e-17)
(307.241 43.0333 2.51004e-17)
(296.258 42.7657 5.5776e-17)
(288.128 41.2851 0)
(278.467 41.1174 2.85134e-17)
(270.695 40.0136 0)
(262.008 39.8195 0)
(254.59 38.9349 0)
(246.626 38.5883 0)
(239.544 37.6543 2.88091e-17)
(232.219 36.9263 -2.9804e-17)
(225.652 35.7129 -6.14082e-17)
(219.159 34.5942 -6.36928e-17)
(213.43 33.2791 0)
(207.928 32.1582 3.35118e-17)
(203.054 31.1271 0)
(198.299 30.3051 0)
(193.947 29.673 0)
(189.545 29.0986 7.13214e-17)
(185.416 28.6906 -7.4707e-22)
(181.144 28.1296 7.40827e-17)
(177.178 27.7526 0)
(173.003 27.0517 -7.71388e-17)
(169.254 26.632 3.94727e-17)
(165.136 25.6999 0)
(161.66 25.1764 0)
(157.478 23.8774 4.18085e-17)
(154.381 23.0984 0)
(149.926 21.2049 0)
(147.495 19.8079 0)
(142.307 17.0723 0)
(141.016 14.7671 0)
(133.285 10.9561 0)
(100.05 -1.74553 0)
(100.753 -4.68311 8.35222e-17)
(101.897 -7.91454 -7.97373e-17)
(103.219 -11.8786 0)
(104.37 -16.8024 0)
(105.416 -21.828 0)
(106.272 -26.2214 -1.98093e-16)
(107.192 -29.3416 3.48071e-21)
(108.329 -30.8611 0)
(109.938 -30.8543 0)
(111.974 -29.9821 9.98552e-17)
(114.172 -29.1739 8.73745e-17)
(116.411 -28.7825 0)
(118.667 -28.7336 -7.31951e-17)
(121.05 -28.8061 7.01786e-17)
(123.495 -28.9948 2.9958e-21)
(126.108 -29.2098 0)
(128.763 -29.5362 -6.47294e-17)
(131.619 -29.8572 6.31764e-17)
(134.488 -30.3045 -3.2927e-21)
(137.609 -30.7104 5.99665e-17)
(140.703 -31.2757 0)
(144.126 -31.7557 -1.13355e-16)
(147.464 -32.4488 5.4888e-17)
(151.242 -32.9971 -5.33114e-17)
(154.847 -33.8399 5.14446e-17)
(159.054 -34.4527 9.97669e-17)
(162.955 -35.4781 0)
(167.694 -36.1516 0)
(171.924 -37.4026 0)
(177.335 -38.1296 -4.28808e-17)
(181.931 -39.6589 4.06418e-17)
(188.201 -40.4248 3.93031e-17)
(193.183 -42.2946 3.68442e-17)
(200.552 -43.091 0)
(205.92 -45.3835 -6.58101e-17)
(214.716 -46.2254 6.39949e-17)
(220.457 -49.0298 0)
(231.075 -50.0003 0)
(237.098 -53.5149 0)
(250.042 -55.0087 -2.42962e-17)
(256.519 -59.6554 0)
(272.913 -62.2417 -1.12391e-21)
(280.78 -68.1945 -1.55288e-17)
(302.448 -71.771 0)
(313.262 -78.1107 1.17824e-17)
(342.749 -80.9821 1.71401e-17)
(357.432 -85.2202 -6.6663e-18)
(394.414 -87.1759 -2.50043e-17)
(410.27 -90.4431 -8.24947e-19)
(458.816 -96.3572 -6.54626e-18)
(486.046 -88.6863 0)
(557.612 -97.4457 -4.23546e-21)
(620.774 -2.64444 2.1998e-18)
(576.869 48.1745 -8.25686e-19)
(555.929 64.5251 1.52994e-17)
(508.034 74.0154 2.84161e-18)
(483.702 72.649 0)
(444.142 70.7193 -8.15682e-18)
(425.163 63.345 -8.15756e-18)
(397.375 60.2597 0)
(384.839 55.0596 1.03759e-17)
(364.67 53.8414 -1.93475e-17)
(353.965 49.8671 0)
(338.033 48.9383 -1.24496e-20)
(328.68 45.8948 0)
(315.771 45.3348 -1.00526e-20)
(307.139 43.1759 -5.51103e-17)
(296.172 42.9092 -8.76644e-21)
(288.055 41.4263 0)
(278.41 41.2609 0)
(270.649 40.1558 0)
(261.973 39.9635 0)
(254.563 39.0783 0)
(246.607 38.7331 2.98404e-17)
(239.528 37.7978 -3.00059e-17)
(232.204 37.068 3.09358e-17)
(225.631 35.849 2.79942e-21)
(219.127 34.7229 3.29342e-17)
(213.386 33.3983 0)
(207.873 32.2691 -2.92321e-21)
(202.994 31.2312 3.50838e-17)
(198.237 30.4054 -3.55463e-17)
(193.889 29.7718 0)
(189.492 29.1979 -7.62461e-22)
(185.369 28.7912 -3.71149e-17)
(181.102 28.2312 -3.58278e-22)
(177.139 27.8553 0)
(172.965 27.1542 3.92288e-17)
(169.216 26.7355 4.01114e-17)
(165.099 25.8023 4.07719e-17)
(161.62 25.2808 0)
(157.437 23.9789 -1.12201e-21)
(154.337 23.2043 0)
(149.874 21.3032 4.45945e-17)
(147.434 19.9162 4.7396e-17)
(142.21 17.1629 5.0518e-17)
(140.897 14.8926 6.01963e-17)
(133.043 11.0525 6.95078e-17)
(100.051 -1.76606 0)
(100.766 -4.73091 8.35229e-17)
(101.925 -7.98017 -7.97555e-17)
(103.265 -11.9465 0)
(104.423 -16.8645 -8.2782e-17)
(105.467 -21.8818 0)
(106.31 -26.2691 9.91308e-17)
(107.208 -29.3903 -2.16506e-16)
(108.317 -30.9188 1.13569e-16)
(109.9 -30.9254 0)
(111.923 -30.0622 1.00092e-16)
(114.117 -29.2559 8.75511e-17)
(116.354 -28.8638 0)
(118.607 -28.8153 -7.32786e-17)
(120.987 -28.8891 0)
(123.428 -29.0797 3.01296e-21)
(126.038 -29.2963 6.64308e-17)
(128.69 -29.6244 6.47758e-17)
(131.543 -29.9469 -6.32272e-17)
(134.409 -30.396 -3.31111e-21)
(137.528 -30.8033 -1.20023e-16)
(140.619 -31.3706 0)
(144.04 -31.8519 -3.19864e-21)
(147.375 -32.5473 0)
(151.15 -33.0969 0)
(154.753 -33.9426 -5.14958e-17)
(158.957 -34.5567 -4.99398e-17)
(162.855 -35.5856 0)
(167.591 -36.2605 0)
(171.819 -37.5158 0)
(177.226 -38.2442 -3.27483e-21)
(181.818 -39.779 -4.07204e-17)
(188.085 -40.5463 0)
(193.063 -42.4227 -3.6934e-17)
(200.429 -43.22 0)
(205.793 -45.5208 6.60231e-17)
(214.585 -46.3629 -6.42184e-17)
(220.32 -49.177 0)
(230.937 -50.1466 -2.83572e-17)
(236.95 -53.6719 2.4555e-17)
(249.89 -55.1655 2.44361e-17)
(256.347 -59.8265 1.99788e-17)
(272.728 -62.4185 2.08879e-17)
(280.559 -68.3909 1.57048e-17)
(302.205 -71.9808 -1.84646e-17)
(312.966 -78.3458 0)
(342.445 -81.2358 0)
(357.148 -85.5001 -1.62839e-20)
(394.203 -87.4692 -1.36111e-20)
(410.053 -90.7685 0)
(458.611 -96.7325 6.62857e-18)
(485.827 -89.1299 0)
(557.709 -98.0905 -1.58794e-18)
(621.18 -2.72026 -1.10345e-18)
(576.982 48.4709 -2.08418e-20)
(556.016 64.8654 8.46324e-22)
(508.196 74.3915 -2.88019e-18)
(483.956 73.0252 -1.51524e-17)
(444.444 71.0793 0)
(425.397 63.6556 0)
(397.425 60.5068 0)
(384.763 55.2608 -2.25838e-21)
(364.543 54.0236 2.16759e-17)
(353.81 50.0309 0)
(337.871 49.0931 -2.69507e-17)
(328.529 46.04 0)
(315.647 45.4806 -6.31297e-17)
(307.033 43.3178 3.63619e-21)
(296.084 43.0521 -6.68579e-17)
(287.981 41.5672 0)
(278.353 41.4044 3.31875e-17)
(270.605 40.2982 0)
(261.941 40.1079 -3.20951e-17)
(254.541 39.2223 -3.12433e-17)
(246.593 38.8786 -6.2739e-17)
(239.519 37.9421 0)
(232.195 37.2107 0)
(225.616 35.9861 6.61045e-17)
(219.101 34.8527 0)
(213.346 33.5185 3.49987e-17)
(207.821 32.3806 -7.15211e-17)
(202.935 31.3356 -3.62339e-17)
(198.177 30.5058 3.66277e-17)
(193.832 29.8706 0)
(189.441 29.2971 -7.48069e-17)
(185.323 28.8919 -3.7977e-17)
(181.061 28.3329 -7.71408e-17)
(177.101 27.9583 -3.93283e-17)
(172.93 27.2571 0)
(169.181 26.8394 -4.08341e-17)
(165.064 25.905 -4.14804e-17)
(161.584 25.3857 0)
(157.4 24.0811 -8.62917e-17)
(154.295 23.3108 0)
(149.825 21.4023 -4.53659e-17)
(147.377 20.0257 -9.65186e-17)
(142.115 17.2548 -5.15297e-17)
(140.781 15.0208 -6.14435e-17)
(132.804 11.1513 -7.09415e-17)
(100.052 -1.78694 0)
(100.779 -4.77945 1.1857e-20)
(101.954 -8.04675 7.97526e-17)
(103.311 -12.0152 7.92143e-17)
(104.477 -16.9271 8.28191e-17)
(105.52 -21.9355 0)
(106.35 -26.3163 0)
(107.226 -29.4381 1.08378e-16)
(108.306 -30.9754 -1.13758e-16)
(109.863 -30.9956 0)
(111.871 -30.1418 -1.00329e-16)
(114.062 -29.3378 -8.77302e-17)
(116.297 -28.9449 0)
(118.547 -28.8968 -3.06931e-21)
(120.923 -28.9719 0)
(123.36 -29.1644 -1.36382e-16)
(125.967 -29.3826 -6.64864e-17)
(128.616 -29.7125 0)
(131.467 -30.0365 -3.00375e-21)
(134.331 -30.4874 1.23251e-16)
(137.447 -30.896 -3.11207e-21)
(140.536 -31.4653 0)
(143.954 -31.948 5.67766e-17)
(147.287 -32.6457 -5.49969e-17)
(151.059 -33.1967 0)
(154.659 -34.0451 -5.15606e-17)
(158.86 -34.6606 0)
(162.756 -35.6929 -4.80491e-17)
(167.488 -36.3693 4.65434e-17)
(171.714 -37.6289 -4.44689e-17)
(177.117 -38.3589 -3.3066e-21)
(181.707 -39.8991 4.08167e-17)
(187.97 -40.6677 -3.94902e-17)
(192.944 -42.5509 0)
(200.307 -43.349 0)
(205.666 -45.6581 -3.31249e-17)
(214.456 -46.5005 3.22301e-17)
(220.185 -49.3244 2.90966e-17)
(230.8 -50.2931 2.84934e-17)
(236.805 -53.8291 -4.9391e-17)
(249.74 -55.3226 2.45925e-17)
(256.177 -59.9978 -2.01297e-17)
(272.546 -62.5953 0)
(280.34 -68.5868 -3.17721e-17)
(301.963 -72.1899 -3.44529e-21)
(312.668 -78.5796 1.22427e-17)
(342.136 -81.4885 0)
(356.858 -85.7793 1.41013e-17)
(393.991 -87.7629 1.31423e-17)
(409.841 -91.0947 0)
(458.409 -97.1086 0)
(485.61 -89.5752 0)
(557.802 -98.7374 0)
(621.572 -2.7963 0)
(577.078 48.7665 -2.14098e-20)
(556.098 65.2048 -1.57976e-17)
(508.368 74.7681 5.86671e-18)
(484.231 73.4039 3.4144e-23)
(444.776 71.4438 0)
(425.669 63.9736 0)
(397.505 60.76 1.79589e-17)
(384.703 55.4659 -6.45778e-18)
(364.418 54.2064 0)
(353.648 50.1945 -1.88341e-17)
(337.698 49.2461 0)
(328.366 46.1835 -2.84308e-17)
(315.515 45.6248 1.1575e-20)
(306.922 43.4588 3.40851e-17)
(295.993 43.1943 7.41545e-17)
(287.907 41.7078 -3.54876e-17)
(278.298 41.5477 -7.24526e-17)
(270.564 40.4409 0)
(261.913 40.2527 3.44387e-17)
(254.523 39.3668 6.65138e-17)
(246.585 39.0249 5.00349e-21)
(239.516 38.0873 3.29666e-17)
(232.194 37.3546 3.3713e-17)
(225.608 36.1245 -6.8975e-17)
(219.081 34.9838 3.55916e-17)
(213.31 33.6398 -3.46309e-21)
(207.773 32.4928 3.42574e-21)
(202.878 31.4405 -3.75454e-17)
(198.118 30.6063 -3.78607e-17)
(193.775 29.9695 3.81258e-17)
(189.39 29.3964 7.69209e-17)
(185.279 28.9926 3.89589e-17)
(181.023 28.4348 3.94907e-17)
(177.065 28.0615 4.02026e-17)
(172.897 27.3603 -4.08096e-17)
(169.149 26.9436 4.16441e-17)
(165.033 26.0083 -4.22758e-17)
(161.551 25.4911 4.32772e-17)
(157.365 24.1837 8.78787e-17)
(154.258 23.4181 0)
(149.779 21.5022 0)
(147.324 20.1364 4.92189e-17)
(142.024 17.3481 0)
(140.668 15.1515 0)
(132.569 11.2526 0)
(100.053 -1.80819 0)
(100.792 -4.82874 -8.34875e-17)
(101.984 -8.11428 -7.97702e-17)
(103.359 -12.0847 -7.92321e-17)
(104.533 -16.9901 8.28701e-17)
(105.575 -21.9893 0)
(106.392 -26.363 0)
(107.245 -29.4849 0)
(108.296 -31.0309 -1.13953e-16)
(109.825 -31.065 -1.11298e-16)
(111.819 -30.2209 1.00581e-16)
(114.007 -29.4194 -8.79273e-17)
(116.24 -29.0258 0)
(118.487 -28.9781 7.34649e-17)
(120.858 -29.0545 0)
(123.293 -29.2489 6.82607e-17)
(125.897 -29.4687 -6.65554e-17)
(128.543 -29.8005 6.48978e-17)
(131.391 -30.1259 1.2668e-16)
(134.252 -30.5786 3.35084e-21)
(137.366 -30.9886 6.012e-17)
(140.452 -31.5599 0)
(143.868 -32.0439 5.68387e-17)
(147.198 -32.7439 5.50541e-17)
(150.968 -33.2963 5.34864e-17)
(154.566 -34.1474 5.16234e-17)
(158.764 -34.7644 0)
(162.657 -35.8002 4.81203e-17)
(167.386 -36.4781 -4.662e-17)
(171.609 -37.742 -4.68676e-21)
(177.009 -38.4734 4.31296e-17)
(181.595 -40.0192 -8.18282e-17)
(187.855 -40.789 -3.23573e-21)
(192.827 -42.679 0)
(200.186 -43.478 0)
(205.541 -45.7954 3.32578e-17)
(214.327 -46.6381 0)
(220.051 -49.4719 -5.84721e-17)
(230.665 -50.4398 -2.86472e-17)
(236.661 -53.9866 2.48488e-17)
(249.593 -55.4798 -2.47599e-17)
(256.01 -60.1692 0)
(272.367 -62.772 2.12778e-17)
(280.122 -68.7825 3.2174e-17)
(301.722 -72.3984 1.90032e-17)
(312.368 -78.8121 1.08207e-20)
(341.824 -81.7398 0)
(356.564 -86.0576 -7.267e-18)
(393.78 -88.0571 1.35339e-17)
(409.633 -91.4218 0)
(458.212 -97.4854 0)
(485.394 -90.022 0)
(557.893 -99.3865 -1.57913e-18)
(621.95 -2.8725 0)
(577.158 49.061 8.95886e-19)
(556.175 65.5429 0)
(508.549 75.1451 -2.99113e-18)
(484.527 73.7851 1.59499e-17)
(445.139 71.8128 0)
(425.98 64.2992 0)
(397.622 61.0202 -1.95951e-17)
(384.66 55.6756 0)
(364.296 54.3902 0)
(353.479 50.3579 2.1383e-17)
(337.512 49.3971 3.44451e-17)
(328.188 46.3249 3.22687e-17)
(315.371 45.7668 4.00481e-17)
(306.803 43.5985 0)
(295.898 43.3356 -4.15043e-17)
(287.83 41.848 3.94345e-17)
(278.243 41.6908 3.98732e-17)
(270.525 40.5838 3.78431e-17)
(261.89 40.3978 0)
(254.511 39.512 -3.56214e-17)
(246.584 39.1719 5.60986e-21)
(239.52 38.2336 -3.48087e-17)
(232.2 37.4996 -3.543e-17)
(225.607 36.2643 3.77645e-21)
(219.068 35.1161 -7.44433e-17)
(213.281 33.7621 -3.73968e-21)
(207.729 32.6059 3.69706e-21)
(202.823 31.5458 3.90554e-17)
(198.061 30.707 3.92784e-17)
(193.72 30.0683 -3.94373e-17)
(189.341 29.4956 -3.96678e-17)
(185.236 29.0933 0)
(180.986 28.5369 0)
(177.032 28.1649 4.11892e-17)
(172.867 27.4638 8.05855e-22)
(169.119 27.0483 -4.25618e-17)
(165.004 26.112 1.01044e-21)
(161.521 25.597 -4.41664e-17)
(157.335 24.287 -4.48311e-17)
(154.224 23.526 0)
(149.738 21.6029 4.71871e-17)
(147.274 20.2484 0)
(141.936 17.4429 0)
(140.558 15.285 0)
(132.338 11.3566 0)
(100.055 -1.82982 0)
(100.805 -4.87879 0)
(102.014 -8.1828 1.59543e-16)
(103.407 -12.1551 0)
(104.59 -17.0535 -8.29083e-17)
(105.631 -22.043 0)
(106.434 -26.4092 0)
(107.265 -29.5309 1.08635e-16)
(108.286 -31.0853 1.14142e-16)
(109.788 -31.1334 2.23102e-16)
(111.767 -30.2995 -1.00835e-16)
(113.951 -29.5008 8.81298e-17)
(116.183 -29.1066 -7.89524e-17)
(118.426 -29.0592 0)
(120.794 -29.1369 0)
(123.225 -29.3331 0)
(125.826 -29.5546 6.6627e-17)
(128.47 -29.8882 -1.29934e-16)
(131.315 -30.2151 -6.34061e-17)
(134.174 -30.6697 -6.17489e-17)
(137.284 -31.081 -6.0188e-17)
(140.369 -31.6544 0)
(143.782 -32.1397 -5.69007e-17)
(147.11 -32.8421 0)
(150.877 -33.3958 -5.35524e-17)
(154.473 -34.2497 0)
(158.667 -34.8681 0)
(162.559 -35.9073 0)
(167.285 -36.5867 4.67111e-17)
(171.505 -37.855 4.46459e-17)
(176.901 -38.588 0)
(181.485 -40.1392 4.10207e-17)
(187.741 -40.9104 7.94182e-17)
(192.71 -42.8072 -3.7281e-17)
(200.066 -43.6071 0)
(205.417 -45.9329 -6.6787e-17)
(214.201 -46.776 0)
(219.919 -49.6196 5.8783e-17)
(230.532 -50.5867 5.76225e-17)
(236.52 -54.1443 2.50262e-17)
(249.448 -55.6374 2.49465e-17)
(255.846 -60.3408 0)
(272.191 -62.9488 1.70512e-21)
(279.907 -68.9778 7.37279e-21)
(301.481 -72.6062 0)
(312.065 -79.0433 -2.55373e-17)
(341.506 -81.9898 0)
(356.263 -86.3348 0)
(393.568 -88.3516 -1.39366e-17)
(409.43 -91.7499 8.22297e-19)
(458.019 -97.863 0)
(485.181 -90.4705 0)
(557.98 -100.037 3.64023e-21)
(622.313 -2.94883 1.12798e-18)
(577.219 49.3542 0)
(556.245 65.8796 0)
(508.739 75.5224 3.04085e-18)
(484.844 74.1687 0)
(445.533 72.1863 -9.38436e-18)
(426.332 64.6328 0)
(397.778 61.288 2.1293e-17)
(384.642 55.8909 0)
(364.18 54.5753 0)
(353.305 50.5214 -2.43848e-17)
(337.312 49.5459 -3.93544e-17)
(327.993 46.4637 0)
(315.214 45.9062 4.56652e-17)
(306.674 43.7367 -4.36827e-17)
(295.798 43.4757 4.68692e-17)
(287.752 41.9877 -4.42087e-17)
(278.189 41.8336 0)
(270.489 40.7268 -8.324e-17)
(261.871 40.5434 0)
(254.505 39.6579 -3.84026e-17)
(246.59 39.3199 3.76318e-17)
(239.533 38.381 0)
(232.214 37.6459 3.74022e-17)
(225.615 36.4055 3.80318e-17)
(219.063 35.2499 7.8182e-17)
(213.257 33.8857 -7.97229e-17)
(207.688 32.7198 8.10314e-17)
(202.771 31.6516 4.07842e-17)
(198.005 30.8079 4.09014e-17)
(193.665 30.1672 -4.09369e-17)
(189.293 29.5948 -4.10465e-17)
(185.195 29.1941 0)
(180.952 28.6391 0)
(177.002 28.2686 -4.23107e-17)
(172.84 27.5677 8.56537e-17)
(169.093 27.1534 -4.35926e-17)
(164.979 26.2161 8.83645e-17)
(161.495 25.7034 0)
(157.308 24.3909 -4.5831e-17)
(154.194 23.6347 0)
(149.7 21.7044 -9.65302e-17)
(147.229 20.3617 0)
(141.852 17.5392 0)
(140.452 15.4212 0)
(132.112 11.4632 0)
(100.056 -1.85183 0)
(100.819 -4.92962 8.34736e-17)
(102.045 -8.25233 -1.59556e-16)
(103.457 -12.2264 0)
(104.648 -17.1175 0)
(105.688 -22.0968 0)
(106.478 -26.4549 0)
(107.286 -29.5759 3.46882e-21)
(108.277 -31.1385 0)
(109.751 -31.201 -1.11809e-16)
(111.715 -30.3777 0)
(113.895 -29.5819 -8.83536e-17)
(116.125 -29.1871 -3.21731e-21)
(118.366 -29.14 -7.37034e-17)
(120.73 -29.2191 0)
(123.157 -29.4172 0)
(125.755 -29.6403 6.67142e-17)
(128.396 -29.9758 6.50451e-17)
(131.239 -30.3041 -6.34853e-17)
(134.095 -30.7606 -6.18262e-17)
(137.203 -31.1733 1.20517e-16)
(140.286 -31.7487 0)
(143.696 -32.2354 5.69762e-17)
(147.022 -32.94 0)
(150.786 -33.4952 -5.36323e-17)
(154.38 -34.3519 0)
(158.572 -34.9717 0)
(162.461 -36.0144 0)
(167.183 -36.6953 -4.68037e-17)
(171.401 -37.968 4.47544e-17)
(176.794 -38.7025 0)
(181.375 -40.2593 -4.1145e-17)
(187.629 -41.0318 3.32414e-21)
(192.594 -42.9355 7.48271e-17)
(199.947 -43.7363 0)
(205.294 -46.0705 6.70896e-17)
(214.075 -46.914 0)
(219.789 -49.7675 6.58167e-21)
(230.401 -50.7339 -2.89905e-17)
(236.382 -54.3024 -2.52054e-17)
(249.307 -55.7952 2.02503e-21)
(255.684 -60.5126 2.06974e-17)
(272.017 -63.1257 -2.17389e-17)
(279.693 -69.1729 -1.65399e-17)
(301.242 -72.8135 0)
(311.761 -79.273 1.30632e-17)
(341.183 -82.2384 0)
(355.956 -86.611 0)
(393.355 -88.6465 -1.4416e-17)
(409.232 -92.0789 -1.66973e-18)
(457.83 -98.2415 0)
(484.969 -90.9206 0)
(558.064 -100.69 1.58107e-18)
(622.661 -3.02521 -1.13242e-18)
(577.26 49.6459 0)
(556.307 66.2147 -1.67592e-17)
(508.939 75.8998 -9.13575e-21)
(485.184 74.5548 0)
(445.96 72.5644 1.9446e-17)
(426.725 64.9743 0)
(397.978 61.5642 -2.30653e-17)
(384.653 56.1129 0)
(364.073 54.7626 0)
(353.125 50.6854 5.57611e-17)
(337.097 49.6924 0)
(327.778 46.5998 0)
(315.039 46.0424 -5.24847e-17)
(306.533 43.873 2.30267e-21)
(295.69 43.6143 -5.34348e-17)
(287.669 42.1266 5.503e-21)
(278.135 41.9761 0)
(270.456 40.87 4.61669e-17)
(261.857 40.6894 0)
(254.505 39.8045 4.17076e-17)
(246.603 39.4687 0)
(239.554 38.5297 3.94278e-17)
(232.238 37.7937 -3.96963e-17)
(225.632 36.5483 0)