/*--------------------------------*- C++ -*----------------------------------*\
| =========                 |                                                 |
| \\      /  F ield         | OpenFOAM: The Open Source CFD Toolbox           |
|  \\    /   O peration     | Version:  2412                                  |
|   \\  /    A nd           | Website:  www.openfoam.com                      |
|    \\/     M anipulation  |                                                 |
\*---------------------------------------------------------------------------*/
FoamFile
{
    version     2.0;
    format      ascii;
    arch        "LSB;label=32;scalar=64";
    class       volScalarField;
    location    "0.3";
    object      epsilon;
}
// * * * * * * * * * * * * * * * * * * * * * * * * * * * * * * * * * * * * * //

dimensions      [0 2 -3 0 0 0 0];

internalField   nonuniform List<scalar> 
13079
(
475.205
771.236
1218.05
1563.69
1637.15
1481.29
1227.28
967.756
757.371
628.419
571.774
556.835
560.081
570.389
582.99
596.568
610.406
624.882
639.719
655.7
672.391
690.986
710.659
733.196
757.103
785.216
814.78
850.53
887.344
933.232
978.901
1038.13
1094.68
1173.07
1245.47
1352.34
1444.95
1597.38
1749.47
2035.21
2344.87
2877.65
3409.7
4241.26
4787.31
5384.85
5261.56
6081.3
7109.08
10635.2
13617.6
22517.1
84587.4
112676
74567
44317
23507.2
11000.2
5874.55
3976.85
3316.22
2812.8
2501.11
2166.65
1963.46
1770.49
1679.5
1585.65
1542.68
1481.52
1446.29
1397.94
1363.47
1311.79
1252.94
1175.62
1095.37
474.291
768.558
1213.83
1559.34
1633.43
1478.4
1225.36
966.881
757.405
629.016
572.587
557.677
560.889
571.157
583.727
597.289
611.121
625.603
640.454
656.458
673.176
691.806
711.518
734.102
758.057
786.23
815.856
851.68
888.57
934.55
980.322
1039.68
1096.39
1174.96
1247.6
1354.71
1447.75
1600.7
1753.44
2039.57
2349.33
2881.15
3411.08
4237
4776.7
5367.76
5250.51
6079.05
7111.57
10614.4
13570.3
22214.8
82972.1
111154
73509
43514.8
22999.3
10742.3
5767.37
3921.88
3282.16
2785.28
2478.43
2145.61
1944.92
1752.77
1663.74
1571.2
1530.18
1470.65
1437.24
1390.39
1357.25
1306.65
1248.83
1172.41
1092.98
473.388
765.884
1209.58
1554.89
1629.58
1475.41
1223.38
965.994
757.448
629.626
573.414
558.53
561.707
571.935
584.475
598.02
611.847
626.335
641.198
657.226
673.971
692.638
712.388
735.02
759.024
787.259
816.947
852.848
889.817
935.892
981.77
1041.26
1098.13
1176.9
1249.78
1357.16
1450.63
1604.12
1757.54
2044.1
2354
2885
3413
4233.78
4767.83
5353.51
5242.47
6079.34
7115.84
10595.1
13524.8
21918.2
81356.2
109597
72466.4
42752.5
22526.6
10508.8
5672.91
3874.56
3253.1
2761.86
2459.18
2127.81
1929.29
1737.86
1650.52
1559.08
1519.69
1461.54
1429.66
1384.07
1352.04
1302.35
1245.4
1169.78
1091.07
472.499
763.225
1205.29
1550.34
1625.59
1472.3
1221.34
965.074
757.482
630.241
574.247
559.391
562.533
572.72
585.229
598.758
612.578
627.072
641.949
657.999
674.772
693.475
713.263
735.944
759.998
788.295
818.047
854.024
891.074
937.247
983.233
1042.86
1099.9
1178.87
1251.99
1359.65
1453.56
1607.62
1761.72
2048.74
2358.8
2889.11
3415.34
4231.44
4760.42
5341.68
5236.97
6081.71
7121.46
10576.9
13480.6
21626.8
79739.2
108005
71434.3
42023.4
22083.3
10295.5
5588.97
3833.56
3228.19
2741.85
2442.81
2112.74
1916.15
1725.35
1639.44
1548.93
1510.91
1453.9
1423.31
1378.77
1347.66
1298.72
1242.52
1167.61
1089.54
471.624
760.583
1200.99
1545.7
1621.49
1469.08
1219.23
964.112
757.499
630.853
575.085
560.258
563.364
573.51
585.988
599.5
613.314
627.813
642.702
658.775
675.575
694.314
714.14
736.87
760.974
789.333
819.149
855.205
892.335
938.607
984.702
1044.47
1101.68
1180.85
1254.22
1362.16
1456.53
1611.16
1765.96
2053.45
2363.71
2893.41
3418.02
4229.82
4754.25
5331.93
5233.64
6085.78
7128.13
10559.5
13437.2
21340
78121.5
106378
70409.2
41322
21664.3
10099
5513.79
3797.85
3206.74
2724.71
2428.88
2099.99
1905.1
1714.86
1630.19
1540.45
1503.56
1447.51
1417.99
1374.32
1343.97
1295.66
1240.11
1165.82
1088.34
1009.96
942.697
886.653
844.468
814.692
795.282
783.072
773.872
767.121
759.285
753.395
744.774
740.219
732.519
734.195
732.888
749.516
764.229
809.879
867.032
971.957
1001.31
470.763
757.958
1196.66
1540.97
1617.25
1465.75
1217.03
963.107
757.498
631.462
575.925
561.129
564.2
574.305
586.752
600.245
614.052
628.556
643.457
659.552
676.379
695.154
715.018
737.796
761.95
790.371
820.25
856.385
893.596
939.968
986.173
1046.08
1103.46
1182.84
1256.45
1364.69
1459.52
1614.74
1770.23
2058.22
2368.69
2897.87
3420.97
4228.83
4749.18
5324
5232.15
6091.27
7135.6
10542.6
13394.6
21057.8
76504.1
104717
69387.9
40643.4
21265.5
9916.61
5445.95
3766.56
3188.19
2709.99
2417.01
2089.22
1895.86
1706.11
1622.48
1533.39
1497.44
1442.17
1413.55
1370.61
1340.87
1293.08
1238.09
1164.35
1087.4
1009.5
942.499
886.59
844.441
814.627
795.13
782.819
773.523
766.709
758.83
752.917
744.274
739.695
731.964
733.552
732.145
748.472
762.906
807.677
863.973
966.305
993.54
469.914
755.35
1192.32
1536.17
1612.9
1462.31
1214.76
962.057
757.478
632.066
576.767
562.004
565.041
575.104
587.518
600.994
614.792
629.3
644.212
660.33
677.183
695.993
715.895
738.721
762.923
791.407
821.35
857.563
894.854
941.327
987.641
1047.69
1105.24
1184.83
1258.69
1367.23
1462.51
1618.34
1774.51
2063.03
2373.72
2902.44
3424.13
4228.36
4745.04
5317.65
5232.27
6097.93
7143.69
10526.1
13352.5
20780
74887.9
103022
68367.9
39983.6
20883.5
9745.92
5384.24
3738.98
3172.07
2697.31
2406.88
2080.14
1888.14
1698.85
1616.11
1527.54
1492.36
1437.74
1409.85
1367.5
1338.27
1290.9
1236.4
1163.15
1086.69
1009.24
942.489
886.699
844.573
814.71
795.115
782.693
773.292
766.406
758.475
752.53
743.858
739.245
731.476
732.968
731.457
747.478
761.63
805.527
860.966
960.774
985.996
469.078
752.757
1187.96
1531.28
1608.43
1458.76
1212.41
960.964
757.438
632.665
577.611
562.882
565.885
575.906
588.288
601.744
615.534
630.045
644.968
661.107
677.985
696.831
716.769
739.643
763.894
792.44
822.445
858.736
896.107
942.682
989.104
1049.29
1107.02
1186.82
1260.93
1369.77
1465.51
1621.94
1778.8
2067.84
2378.76
2907.08
3427.47
4228.34
4741.71
5312.67
5233.74
6105.55
7152.23
10509.9
13310.7
20506.5
73274.3
101296
67346.8
39338.8
20515.2
9584.99
5327.68
3714.5
3157.99
2686.36
2398.25
2072.49
1881.73
1692.84
1610.86
1522.73
1488.16
1434.06
1406.78
1364.91
1336.07
1289.06
1234.97
1162.17
1086.16
1009.14
942.625
886.944
844.832
814.912
795.212
782.671
773.157
766.191
758.201
752.215
743.506
738.852
731.039
732.429
730.808
746.519
760.387
803.415
857.997
955.345
978.648
468.254
750.178
1183.57
1526.31
1603.85
1455.11
1209.99
959.829
757.379
633.26
578.456
563.764
566.733
576.711
589.059
602.496
616.277
630.79
645.724
661.883
678.786
697.666
717.64
740.562
764.86
793.467
823.534
859.904
897.353
944.028
990.559
1050.89
1108.78
1188.8
1263.15
1372.3
1468.5
1625.54
1783.08
2072.65
2383.8
2911.78
3430.93
4228.7
4739.09
5308.89
5236.37
6113.95
7161.07
10493.9
13269.2
20237.2
71664.7
99539.8
66322.7
38705.5
20157.8
9432.15
5275.41
3692.62
3145.6
2676.85
2390.86
2066.06
1876.44
1687.92
1606.57
1518.79
1484.7
1431.02
1404.23
1362.75
1334.22
1287.48
1233.76
1161.37
1085.77
1009.16
942.877
887.298
845.195
815.212
795.401
782.734
773.102
766.049
757.994
751.96
743.207
738.505
730.642
731.923
730.189
745.587
759.167
801.331
855.057
950.006
971.475
467.441
747.612
1179.17
1521.26
1599.16
1451.36
1207.51
958.653
757.301
633.849
579.302
564.649
567.584
577.519
589.833
603.249
617.02
631.535
646.478
662.657
679.584
698.498
718.508
741.476
765.821
794.489
824.617
861.064
898.591
945.366
992.004
1052.48
1110.54
1190.77
1265.36
1374.82
1471.47
1629.13
1787.34
2077.45
2388.82
2916.51
3434.48
4229.36
4737.05
5306.12
5239.99
6122.96
7170.11
10477.9
13227.9
19972.1
70060.4
97754.5
65293.5
38081
19809.2
9285.99
5226.72
3672.91
3134.63
2668.55
2384.53
2060.67
1872.08
1683.91
1603.1
1515.59
1481.87
1428.52
1402.13
1360.95
1332.65
1286.14
1232.73
1160.71
1085.51
1009.29
943.221
887.739
845.641
815.592
795.665
782.868
773.113
765.968
757.84
751.752
742.95
738.194
730.275
731.443
729.592
744.673
757.963
799.27
852.14
944.748
964.466
466.638
745.057
1174.75
1516.13
1594.36
1447.52
1204.95
957.437
757.206
634.434
580.149
565.536
568.437
578.33
590.609
604.004
617.763
632.28
647.231
663.429
680.38
699.326
719.371
742.384
766.776
795.504
825.691
862.215
899.818
946.693
993.436
1054.05
1112.28
1192.72
1267.56
1377.32
1474.43
1632.7
1791.57
2082.21
2393.82
2921.23
3438.08
4230.27
4735.52
5304.23
5244.42
6132.45
7179.24
10461.9
13186.6
19711
68463.2
95942
64257.8
37462.4
19467.3
9145.31
5181
3655
3124.83
2661.26
2379.09
2056.15
1868.52
1680.67
1600.32
1513.02
1479.57
1426.47
1400.39
1359.45
1331.32
1284.98
1231.85
1160.17
1085.34
1009.49
943.636
888.25
846.155
816.037
795.992
783.06
773.178
765.935
757.731
751.584
742.727
737.911
729.933
730.983
729.011
743.772
756.771
797.225
849.241
939.565
957.606
465.846
742.512
1170.3
1510.93
1589.46
1443.58
1202.33
956.183
757.093
635.014
580.996
566.426
569.294
579.143
591.386
604.759
618.507
633.023
647.982
664.198
681.172
700.15
720.229
743.287
767.724
796.511
826.757
863.356
901.034
948.007
994.854
1055.61
1114
1194.65
1269.73
1379.8
1477.36
1636.24
1795.76
2086.94
2398.76
2925.94
3441.71
4231.38
4734.41
5303.09
5249.55
6142.31
7188.39
10445.8
13145.4
19454.2
66874.5
94103.8
63214.2
36847.5
19130.5
9009.12
5137.77
3638.6
3116
2654.81
2374.39
2052.36
1865.63
1678.08
1598.11
1510.97
1477.72
1424.79
1398.95
1358.19
1330.18
1283.97
1231.08
1159.72
1085.25
1009.75
944.107
888.814
846.723
816.534
796.368
783.3
773.288
765.944
757.658
751.446
742.531
737.651
729.609
730.536
728.441
742.879
755.585
795.192
846.356
934.449
950.886
465.063
739.977
1165.83
1505.66
1584.47
1439.56
1199.65
954.892
756.963
635.59
581.845
567.318
570.153
579.958
592.165
605.514
619.25
633.766
648.731
664.964
681.96
700.97
721.082
744.184
768.665
797.509
827.813
864.486
902.238
949.308
996.257
1057.16
1115.7
1196.56
1271.87
1382.26
1480.26
1639.75
1799.91
2091.61
2403.65
2930.6
3445.33
4232.64
4733.65
5302.58
5255.23
6152.42
7197.47
10429.7
13104.2
19201.4
65296.1
92241.8
62161.3
36234.1
18797.3
8876.58
5096.59
3623.44
3107.97
2649.06
2370.31
2049.19
1863.31
1676.04
1596.39
1509.36
1476.23
1423.43
1397.77
1357.14
1329.2
1283.08
1230.41
1159.34
1085.21
1010.05
944.618
889.42
847.332
817.073
796.786
783.579
773.434
765.984
757.615
751.333
742.356
737.406
729.298
730.097
727.877
741.991
754.401
793.168
843.482
929.397
944.297
464.289
737.45
1161.34
1500.31
1579.37
1435.46
1196.91
953.566
756.818
636.161
582.693
568.212
571.014
580.774
592.945
606.27
619.992
634.507
649.478
665.727
682.744
701.784
721.928
745.073
769.598
798.499
828.859
865.604
903.428
950.594
997.643
1058.68
1117.38
1198.45
1273.99
1384.69
1483.12
1643.22
1804.01
2096.23
2408.47
2935.22
3448.94
4234.01
4733.17
5302.6
5261.37
6162.71
7206.43
10413.4
13063
18952.7
63729.7
90357.6
61098.4
35620.5
18466.7
8747
5057.11
3609.32
3100.59
2643.88
2366.74
2046.53
1861.45
1674.46
1595.08
1508.11
1475.05
1422.32
1396.8
1356.25
1328.34
1282.29
1229.81
1159.02
1085.21
1010.38
945.158
890.055
847.972
817.644
797.235
783.888
773.609
766.051
757.593
751.239
742.196
737.173
728.995
729.664
727.315
741.103
753.217
791.15
840.615
924.403
937.829
463.523
734.93
1156.82
1494.89
1574.19
1431.27
1194.12
952.206
756.656
636.728
583.542
569.108
571.877
581.593
593.725
607.026
620.734
635.246
650.222
666.487
683.523
702.593
722.768
745.956
770.522
799.479
829.893
866.71
904.604
951.864
999.011
1060.18
1119.04
1200.31
1276.08
1387.08
1485.95
1646.65
1808.06
2100.79
2413.21
2939.76
3452.5
4235.46
4732.91
5303.06
5267.88
6173.09
7215.24
10396.9
13021.8
18708.2
62176.9
88453.2
60024.5
35005.1
18137.5
8619.82
5019.03
3596.04
3093.75
2639.17
2363.59
2044.29
1859.97
1673.26
1594.1
1507.17
1474.12
1421.43
1396
1355.49
1327.58
1281.57
1229.26
1158.74
1085.24
1010.73
945.716
890.709
848.634
818.238
797.708
784.221
773.806
766.138
757.59
751.159
742.047
736.948
728.697
729.232
726.752
740.213
752.029
789.134
837.752
919.463
931.475
462.766
732.418
1152.29
1489.41
1568.92
1427
1191.26
950.814
756.481
637.29
584.392
570.006
572.742
582.412
594.506
607.782
621.474
635.983
650.963
667.243
684.298
703.396
723.602
746.83
771.437
800.449
830.916
867.803
905.765
953.118
1000.36
1061.67
1120.68
1202.15
1278.14
1389.44
1488.74
1650.04
1812.04
2105.28
2417.87
2944.23
3456
4236.94
4732.84
5303.87
5274.67
6183.51
7223.85
10380.3
12980.5
18467.8
60639.6
86530.6
58939
34386.5
17809
8494.6
4982.13
3583.46
3087.34
2634.85
2360.79
2042.4
1858.82
1672.37
1593.4
1506.47
1473.4
1420.71
1395.33
1354.83
1326.9
1280.9
1228.76
1158.48
1085.29
1011.09
946.283
891.375
849.311
818.849
798.199
784.571
774.019
766.239
757.598
751.089
741.904
736.726
728.399
728.798
726.186
739.318
750.835
787.119
834.893
914.573
925.227
462.016
729.911
1147.73
1483.85
1563.56
1422.66
1188.36
949.39
756.291
637.849
585.242
570.905
573.609
583.233
595.288
608.537
622.213
636.718
651.701
667.995
685.068
704.194
724.428
747.697
772.343
801.408
831.927
868.882
906.911
954.354
1001.69
1063.13
1122.29
1203.95
1280.17
1391.77
1491.49
1653.37
1815.96
2109.69
2422.43
2948.61
3459.43
4238.44
4732.9
5304.98
5281.67
6193.92
7232.23
10363.5
12939.1
18231.6
59119.4
84591.9
57841.7
33763.8
17480.7
8370.98
4946.2
3571.46
3081.27
2630.83
2358.26
2040.8
1857.93
1671.73
1592.93
1505.98
1472.84
1420.12
1394.77
1354.26
1326.28
1280.28
1228.27
1158.24
1085.35
1011.45
946.851
892.045
849.995
819.47
798.701
784.934
774.245
766.351
757.616
751.024
741.766
736.505
728.101
728.36
725.613
738.415
749.632
785.101
832.034
909.73
919.08
461.273
727.411
1143.15
1478.24
1558.11
1418.25
1185.4
947.937
756.087
638.403
586.092
571.806
574.478
584.055
596.07
609.292
622.951
637.45
652.436
668.742
685.833
704.985
725.248
748.555
773.24
802.356
832.925
869.948
908.041
955.573
1003
1064.57
1123.87
1205.73
1282.17
1394.06
1494.19
1656.65
1819.82
2114.02
2426.91
2952.89
3462.77
4239.94
4733.05
5306.32
5288.83
6204.27
7240.37
10346.5
12897.8
17999.6
57618
82639.3
56732.1
33136.1
17152
8248.69
4911.09
3559.93
3075.49
2627.05
2355.95
2039.42
1857.24
1671.31
1592.64
1505.66
1472.42
1419.65
1394.29
1353.75
1325.7
1279.69
1227.81
1158
1085.4
1011.81
947.414
892.714
850.681
820.096
799.211
785.304
774.478
766.47
757.638
750.963
741.628
736.282
727.798
727.916
725.032
737.503
748.418
783.08
829.174
904.931
913.028
460.538
724.915
1138.54
1472.56
1552.59
1413.76
1182.4
946.455
755.871
638.954
586.943
572.709
575.348
584.878
596.852
610.046
623.687
638.181
653.167
669.485
686.592
705.77
726.06
749.405
774.127
803.294
833.912
870.999
909.155
956.774
1004.29
1065.98
1125.43
1207.48
1284.13
1396.31
1496.85
1659.88
1823.61
2118.27
2431.28
2957.07
3466.01
4241.4
4733.26
5307.84
5296.1
6214.53
7248.25
10329.3
12856.3
17771.7
56137.2
80675
55610.4
32502.7
16822.8
8127.55
4876.68
3548.79
3069.93
2623.48
2353.83
2038.23
1856.73
1671.05
1592.49
1505.46
1472.1
1419.26
1393.88
1353.29
1325.15
1279.11
1227.35
1157.77
1085.46
1012.15
947.968
893.375
851.364
820.722
799.724
785.678
774.716
766.592
757.663
750.901
741.489
736.055
727.489
727.463
724.441
736.581
747.193
781.054
826.311
900.172
907.064
459.809
722.423
1133.92
1466.82
1546.99
1409.21
1179.35
944.946
755.643
639.502
587.794
573.613
576.22
585.702
597.635
610.8
624.422
638.908
653.895
670.224
687.346
706.549
726.865
750.246
775.004
804.221
834.885
872.037
910.253
957.957
1005.56
1067.38
1126.96
1209.2
1286.05
1398.53
1499.46
1663.06
1827.33
2122.44
2435.56
2961.14
3469.15
4242.82
4733.51
5309.49
5303.43
6224.67
7255.86
10312
12814.9
17548.1
54678.5
78701.5
54476.6
31863.1
16492.7
8007.41
4842.86
3537.98
3064.54
2620.05
2351.84
2037.18
1856.35
1670.93
1592.47
1505.37
1471.87
1418.93
1393.52
1352.86
1324.63
1278.55
1226.9
1157.53
1085.5
1012.48
948.507
894.025
852.041
821.345
800.236
786.054
774.955
766.715
757.687
750.837
741.346
735.822
727.173
727
723.839
735.646
745.955
779.021
823.445
895.453
901.185
459.086
719.936
1129.27
1461.01
1541.31
1404.6
1176.25
943.411
755.402
640.046
588.645
574.519
577.093
586.527
598.417
611.552
625.155
639.633
654.62
670.959
688.095
707.321
727.662
751.079
775.871
805.136
835.846
873.06
911.334
959.121
1006.81
1068.75
1128.46
1210.89
1287.94
1400.7
1502.03
1666.18
1830.98
2126.52
2439.73
2965.1
3472.18
4244.17
4733.78
5311.24
5310.79
6234.67
7263.2
10294.5
12773.5
17328.7
53243.6
76721.1
53331.1
31217.1
16161.9
7888.22
4809.56
3527.43
3059.3
2616.75
2349.97
2036.25
1856.07
1670.92
1592.54
1505.36
1471.7
1418.66
1393.2
1352.46
1324.12
1277.99
1226.44
1157.28
1085.53
1012.79
949.028
894.661
852.707
821.962
800.744
786.427
775.193
766.836
757.709
750.77
741.197
735.582
726.848
726.527
723.224
734.699
744.703
776.981
820.575
890.769
895.385
458.369
717.452
1124.6
1455.16
1535.56
1399.92
1173.11
941.852
755.151
640.587
589.496
575.426
577.967
587.353
599.199
612.304
625.886
640.356
655.34
671.689
688.838
708.087
728.452
751.903
776.729
806.04
836.794
874.068
912.4
960.267
1008.03
1070.1
1129.94
1212.55
1289.8
1402.84
1504.55
1669.24
1834.56
2130.52
2443.8
2968.95
3475.1
4245.46
4734.04
5313.06
5318.15
6244.52
7270.28
10276.9
12732.1
17113.5
51833.8
74736.5
52174.4
30564.7
15830.3
7769.93
4776.74
3517.11
3054.17
2613.54
2348.18
2035.4
1855.87
1670.98
1592.68
1505.42
1471.58
1418.43
1392.9
1352.07
1323.61
1277.43
1225.98
1157.03
1085.55
1013.08
949.529
895.28
853.361
822.569
801.246
786.796
775.428
766.954
757.727
750.697
741.042
735.333
726.512
726.041
722.596
733.737
743.436
774.933
817.7
886.12
889.661
457.658
714.971
1119.91
1449.24
1529.75
1395.19
1169.93
940.269
754.89
641.125
590.347
576.334
578.843
588.179
599.982
613.055
626.615
641.076
656.058
672.414
689.575
708.847
729.234
752.719
777.577
806.934
837.73
875.062
913.449
961.395
1009.24
1071.42
1131.39
1214.18
1291.62
1404.93
1507.03
1672.25
1838.07
2134.44
2447.77
2972.68
3477.91
4246.68
4734.28
5314.91
5325.48
6254.2
7277.08
10259.2
12690.8
16902.7
50450.6
72750.3
51007.1
29905.8
15498.1
7652.56
4744.36
3506.98
3049.13
2610.41
2346.45
2034.63
1855.73
1671.11
1592.87
1505.52
1471.5
1418.22
1392.62
1351.69
1323.11
1276.86
1225.51
1156.75
1085.55
1013.35
950.008
895.879
853.999
823.165
801.74
787.159
775.658
767.067
757.739
750.617
740.879
735.075
726.166
725.543
721.954
732.762
742.154
772.876
814.819
881.503
884.008
456.952
712.494
1115.2
1443.27
1523.86
1390.39
1166.72
938.665
754.618
641.66
591.199
577.243
579.72
589.006
600.764
613.805
627.343
641.792
656.771
673.135
690.307
709.6
730.009
753.526
778.415
807.816
838.653
876.043
914.482
962.505
1010.43
1072.72
1132.82
1215.78
1293.41
1406.99
1509.46
1675.2
1841.51
2138.27
2451.63
2976.3
3480.59
4247.8
4734.48
5316.79
5332.77
6263.71
7283.63
10241.3
12649.5
16696
49095.3
70765.3
49830.2
29240.7
15165.5
7536.15
4712.39
3497.03
3044.17
2607.33
2344.78
2033.9
1855.64
1671.28
1593.11
1505.65
1471.45
1418.03
1392.36
1351.32
1322.61
1276.29
1225.02
1156.46
1085.52
1013.59
950.463
896.458
854.62
823.748
802.224
787.514
775.882
767.174
757.745
750.53
740.707
734.807
725.808
725.031
721.298
731.771
740.856
770.81
811.932
876.917
878.424
456.252
710.02
1110.47
1437.25
1517.91
1385.55
1163.46
937.039
754.338
642.192
592.051
578.154
580.597
589.833
601.545
614.553
628.068
642.507
657.481
673.851
691.034
710.346
730.776
754.325
779.244
808.688
839.564
877.009
915.5
963.597
1011.59
1074
1134.22
1217.35
1295.16
1409.01
1511.84
1678.1
1844.88
2142.01
2455.4
2979.8
3483.16
4248.85
4734.65
5318.67
5340.01
6273.05
7289.93
10223.3
12608.4
16493.7
47769.1
68784.1
48644.5
28569.9
14833
7420.77
4680.83
3487.23
3039.27
2604.3
2343.14
2033.21
1855.58
1671.49
1593.37
1505.81
1471.41
1417.86
1392.09
1350.94
1322.1
1275.71
1224.52
1156.15
1085.48
1013.81
950.894
897.014
855.224
824.317
802.697
787.86
776.098
767.274
757.743
750.434
740.526
734.527
725.438
724.506
720.626
730.765
739.542
768.734
809.039
872.361
872.905
455.556
707.548
1105.72
1431.18
1511.9
1380.65
1160.17
935.393
754.048
642.722
592.903
579.065
581.476
590.661
602.327
615.301
628.792
643.218
658.187
674.562
691.755
711.087
731.537
755.116
780.063
809.548
840.463
877.962
916.502
964.673
1012.74
1075.26
1135.6
1218.89
1296.89
1411
1514.18
1680.95
1848.19
2145.67
2459.07
2983.2
3485.62
4249.8
4734.76
5320.54
5347.18
6282.21
7295.98
10205.3
12567.4
16295.6
46473.1
66809.8
47451.2
27893.9
14500.8
7306.5
4649.67
3477.57
3034.43
2601.3
2341.53
2032.55
1855.54
1671.72
1593.65
1505.99
1471.38
1417.69
1391.83
1350.56
1321.58
1275.11
1224.01
1155.83
1085.42
1014.01
951.299
897.548
855.808
824.871
803.159
788.197
776.306
767.366
757.734
750.33
740.336
734.237
725.056
723.967
719.939
729.743
738.212
766.649
806.139
867.834
867.448
454.865
705.079
1100.96
1425.06
1505.83
1375.7
1156.85
933.729
753.751
643.249
593.755
579.978
582.355
591.489
603.108
616.047
629.514
643.927
658.89
675.27
692.471
711.821
732.29
755.898
780.874
810.399
841.35
878.902
917.489
965.731
1013.87
1076.49
1136.95
1220.41
1298.58
1412.95
1516.48
1683.74
1851.43
2149.26
2462.64
2986.48
3487.96
4250.66
4734.82
5322.39
5354.28
6291.19
7301.81
10187.2
12526.5
16101.7
45208.2
64845.1
46251.6
27213.3
14169.5
7193.46
4618.92
3468.05
3029.64
2598.34
2339.95
2031.9
1855.51
1671.97
1593.95
1506.17
1471.36
1417.52
1391.57
1350.18
1321.05
1274.51
1223.48
1155.48
1085.33
1014.18
951.68
898.058
856.373
825.409
803.607
788.524
776.506
767.45
757.716
750.216
740.135
733.935
724.661
723.415
719.237
728.706
736.865
764.554
803.234
863.334
862.052
454.179
702.612
1096.17
1418.89
1499.7
1370.71
1153.5
932.048
753.446
643.775
594.608
580.891
583.236
592.317
603.889
616.792
630.233
644.632
659.589
675.973
693.182
712.549
733.036
756.673
781.675
811.24
842.226
879.828
918.462
966.773
1014.98
1077.71
1138.27
1221.9
1300.24
1414.86
1518.74
1686.48
1854.61
2152.77
2466.12
2989.66
3490.19
4251.43
4734.83
5324.21
5361.3
6300
7307.43
10169.1
12485.8
15912.1
43975.3
62893
45047.1
26529
13839.4
7081.76
4588.59
3458.66
3024.9
2595.4
2338.38
2031.28
1855.5
1672.23
1594.26
1506.37
1471.35
1417.36
1391.31
1349.79
1320.52
1273.89
1222.93
1155.12
1085.23
1014.33
952.036
898.546
856.919
825.93
804.043
788.84
776.696
767.525
757.689
750.093
739.924
733.623
724.254
722.848
718.52
727.655
735.503
762.45
800.323
858.861
856.714
453.498
700.148
1091.37
1412.68
1493.52
1365.67
1150.12
930.35
753.134
644.298
595.461
581.806
584.117
593.146
604.669
617.537
630.951
645.336
660.285
676.671
693.888
713.271
733.776
757.44
782.468
812.07
843.09
880.743
919.421
967.8
1016.07
1078.9
1139.58
1223.36
1301.87
1416.74
1520.96
1689.18
1857.73
2156.2
2469.51
2992.74
3492.32
4252.11
4734.78
5326
5368.23
6308.65
7312.84
10151
12445.4
15726.7
42775
60956.5
43839.3
25841.8
13511.2
6971.52
4558.7
3449.4
3020.22
2592.5
2336.83
2030.66
1855.49
1672.5
1594.57
1506.56
1471.34
1417.19
1391.05
1349.39
1319.97
1273.27
1222.38
1154.75
1085.1
1014.45
952.367
899.011
857.445
826.436
804.466
789.145
776.877
767.592
757.654
749.96
739.703
733.298
723.834
722.268
717.788
726.588
734.125
760.337
797.407
854.414
851.431
452.821
697.686
1086.55
1406.43
1487.29
1360.59
1146.71
928.637
752.816
644.82
596.313
582.721
584.999
593.975
605.449
618.28
631.667
646.036
660.977
677.366
694.589
713.988
734.509
758.199
783.252
812.892
843.945
881.645
920.366
968.811
1017.15
1080.08
1140.86
1224.8
1303.47
1418.59
1523.14
1691.82
1860.79
2159.56
2472.82
2995.71
3494.34
4252.71
4734.68
5327.75
5375.09
6317.14
7318.08
10132.8
12405.2
15545.4
41608
59038.4
42629.7
25152.7
13185.3
6862.88
4529.26
3440.28
3015.59
2589.62
2335.3
2030.05
1855.49
1672.77
1594.88
1506.76
1471.32
1417.02
1390.78
1348.98
1319.42
1272.63
1221.81
1154.35
1084.96
1014.55
952.676
899.454
857.951
826.925
804.875
789.439
777.049
767.65
757.61
749.818
739.472
732.963
723.403
721.674
717.042
725.507
732.732
758.216
794.485
849.993
846.203
452.147
695.226
1081.72
1400.13
1481
1355.46
1143.27
926.91
752.492
645.34
597.167
583.637
585.882
594.804
606.229
619.022
632.381
646.735
661.666
678.056
695.285
714.699
735.235
758.952
784.028
813.704
844.789
882.536
921.299
969.808
1018.21
1081.24
1142.13
1226.21
1305.05
1420.4
1525.28
1694.43
1863.79
2162.86
2476.05
2998.6
3496.28
4253.23
4734.53
5329.47
5381.87
6325.47
7323.14
10114.7
12365.2
15368.3
40474.6
57141.8
41420.2
24462.9
12862.4
6755.95
4500.3
3431.29
3011.02
2586.78
2333.79
2029.45
1855.49
1673.04
1595.2
1506.96
1471.31
1416.85
1390.5
1348.57
1318.86
1271.98
1221.23
1153.95
1084.8
1014.63
952.962
899.875
858.439
827.398
805.271
789.722
777.212
767.699
757.557
749.667
739.231
732.617
722.96
721.067
716.282
724.412
731.325
756.086
791.559
845.597
841.027
451.478
692.769
1076.87
1393.8
1474.67
1350.3
1139.81
925.17
752.162
645.858
598.02
584.554
586.765
595.633
607.008
619.762
633.094
647.43
662.352
678.743
695.976
715.404
735.956
759.697
784.797
814.507
845.623
883.416
922.219
970.792
1019.25
1082.38
1143.37
1227.6
1306.6
1422.19
1527.39
1696.99
1866.74
2166.08
2479.2
3001.39
3498.12
4253.67
4734.32
5331.15
5388.56
6333.67
7328.05
10096.7
12325.5
15195.3
39375.1
55269.4
40212.6
23773.5
12542.9
6650.88
4471.84
3422.45
3006.52
2583.97
2332.29
2028.86
1855.49
1673.32
1595.51
1507.15
1471.3
1416.68
1390.23
1348.16
1318.3
1271.33
1220.64
1153.53
1084.63
1014.7
953.227
900.276
858.908
827.856
805.655
789.995
777.365
767.74
757.496
749.507
738.981
732.261
722.505
720.448
715.508
723.303
729.903
753.948
788.63
841.226
835.903
450.813
690.314
1072.01
1387.43
1468.3
1345.11
1136.32
923.417
751.827
646.375
598.874
585.472
587.65
596.463
607.787
620.502
633.804
648.123
663.035
679.426
696.663
716.105
736.671
760.436
785.558
815.303
846.448
884.286
923.128
971.762
1020.28
1083.5
1144.6
1228.97
1308.13
1423.95
1529.47
1699.51
1869.65
2169.25
2482.28
3004.11
3499.87
4254.04
4734.07
5332.8
5395.19
6341.73
7332.82
10078.6
12286.1
15026.3
38309.7
53424.2
39008.8
23085.8
12227.4
6547.77
4443.9
3413.75
3002.08
2581.2
2330.83
2028.28
1855.5
1673.59
1595.83
1507.35
1471.28
1416.51
1389.95
1347.74
1317.73
1270.67
1220.04
1153.1
1084.44
1014.74
953.472
900.658
859.361
828.299
806.026
790.257
777.51
767.772
757.427
749.339
738.722
731.894
722.039
719.817
714.721
722.181
728.468
751.804
785.697
836.881
830.829
450.152
687.861
1067.14
1381.02
1461.88
1339.88
1132.82
921.654
751.488
646.891
599.728
586.39
588.535
597.293
608.565
621.241
634.513
648.814
663.715
680.105
697.346
716.8
737.38
761.169
786.312
816.09
847.264
885.145
924.026
972.72
1021.3
1084.61
1145.8
1230.33
1309.63
1425.69
1531.52
1701.99
1872.5
2172.36
2485.29
3006.74
3501.55
4254.35
4733.79
5334.42
5401.74
6349.66
7337.47
10060.7
12247
14861.3
37278.5
51608.7
37810.8
22401
11916.6
6446.75
4416.5
3405.22
2997.72
2578.47
2329.38
2027.72
1855.51
1673.88
1596.15
1507.55
1471.27
1416.33
1389.67
1347.31
1317.15
1270
1219.43
1152.66
1084.24
1014.77
953.7
901.021
859.796
828.727
806.386
790.51
777.647
767.797
757.351
749.162
738.454
731.518
721.563
719.174
713.921
721.048
727.02
749.653
782.762
832.56
825.805
449.494
685.411
1062.25
1374.58
1455.42
1334.61
1129.29
919.881
751.145
647.405
600.582
587.31
589.42
598.123
609.343
621.979
635.221
649.503
664.392
680.781
698.025
717.491
738.084
761.896
787.06
816.87
848.071
885.996
924.913
973.667
1022.3
1085.71
1147
1231.66
1311.12
1427.4
1533.54
1704.44
1875.32
2175.42
2488.25
3009.31
3503.16
4254.6
4733.47
5336.01
5408.24
6357.49
7342.01
10042.9
12208.2
14700.3
36281.3
49825.8
36620.5
21720.4
11610.8
6347.93
4389.66
3396.84
2993.44
2575.79
2327.97
2027.17
1855.54
1674.17
1596.47
1507.74
1471.26
1416.16
1389.39
1346.89
1316.58
1269.34
1218.82
1152.21
1084.02
1014.78
953.91
901.368
860.216
829.142
806.734
790.753
777.776
767.815
757.267
748.978
738.178
731.134
721.077
718.521
713.11
719.902
725.56
747.497
779.827
828.265
820.829
448.84
682.963
1057.35
1368.11
1448.92
1329.32
1125.75
918.099
750.798
647.919
601.437
588.23
590.306
598.954
610.121
622.715
635.927
650.19
665.067
681.453
698.699
718.178
738.783
762.617
787.801
817.643
848.871
886.838
925.791
974.603
1023.29
1086.79
1148.17
1232.98
1312.58
1429.09
1535.54
1706.86
1878.09
2178.43
2491.14
3011.81
3504.7
4254.79
4733.12
5337.57
5414.67
6365.2
7346.45
10025.1
12169.8
14543.1
35317.8
48077.7
35440
21045.4
11310.7
6251.39
4363.4
3388.64
2989.25
2573.17
2326.59
2026.64
1855.57
1674.46
1596.8
1507.94
1471.25
1415.99
1389.11
1346.46
1316
1268.67
1218.21
1151.76
1083.8
1014.78
954.105
901.699
860.622
829.545
807.072
790.988
777.897
767.826
757.177
748.787
737.894
730.74
720.582
717.857
712.287
718.746
724.089
745.337
776.891
823.996
815.902
448.189
680.518
1052.44
1361.61
1442.39
1324
1122.19
916.309
750.449
648.432
602.292
589.151
591.193
599.784
610.898
623.451
636.631
650.874
665.738
682.123
699.37
718.86
739.477
763.333
788.536
818.409
849.664
887.671
926.66
975.529
1024.28
1087.86
1149.34
1234.28
1314.03
1430.77
1537.51
1709.25
1880.83
2181.39
2493.98
3014.24
3506.19
4254.94
4732.75
5339.12
5421.05
6372.82
7350.82
10007.5
12131.8
14389.6
34387.9
46367
34271.4
20377.4
11016.6
6157.24
4337.75
3380.61
2985.15
2570.6
2325.25
2026.13
1855.62
1674.77
1597.13
1508.14
1471.25
1415.83
1388.83
1346.04
1315.43
1268
1217.6
1151.3
1083.57
1014.77
954.287
902.015
861.014
829.935
807.4
791.214
778.012
767.831
757.08
748.589
737.604
730.339
720.079
717.184
711.454
717.58
722.608
743.172
773.955
819.753
811.022
447.542
678.076
1047.53
1355.08
1435.83
1318.66
1118.61
914.513
750.097
648.945
603.147
590.072
592.081
600.615
611.675
624.186
637.334
651.557
666.408
682.789
700.038
719.538
740.167
764.044
789.266
819.17
850.45
888.497
927.52
976.445
1025.25
1088.92
1150.49
1235.56
1315.46
1432.42
1539.46
1711.61
1883.53
2184.31
2496.77
3016.63
3507.62
4255.06
4732.36
5340.66
5427.39
6380.35
7355.12
9989.98
12094.1
14240
33490.9
44695.8
33116.6
19717.5
10729.1
6065.54
4312.71
3372.76
2981.15
2568.1
2323.95
2025.64
1855.68
1675.09
1597.47
1508.35
1471.25
1415.67
1388.56
1345.62
1314.85
1267.33
1216.98
1150.84
1083.34
1014.75
954.457
902.319
861.394
830.315
807.719
791.434
778.12
767.83
756.978
748.386
737.307
729.931
719.567
716.502
710.611
716.405
721.117
741.005
771.022
815.536
806.189
446.898
675.637
1042.6
1348.52
1429.23
1313.29
1115.03
912.71
749.743
649.457
604.003
590.994
592.969
601.446
612.452
624.921
638.036
652.238
667.075
683.453
700.702
720.212