/*--------------------------------*- C++ -*----------------------------------*\
| =========                 |                                                 |
| \\      /  F ield         | OpenFOAM: The Open Source CFD Toolbox           |
|  \\    /   O peration     | Version:  2412                                  |
|   \\  /    A nd           | Website:  www.openfoam.com                      |
|    \\/     M anipulation  |                                                 |
\*---------------------------------------------------------------------------*/
FoamFile
{
    version     2.0;
    format      ascii;
    arch        "LSB;label=32;scalar=64";
    class       volScalarField;
    location    "0.3";
    object      k;
}
// * * * * * * * * * * * * * * * * * * * * * * * * * * * * * * * * * * * * * //

dimensions      [0 2 -2 0 0 0 0];

internalField   nonuniform List<scalar> 
13079
(
42.8304
55.8455
70.6352
77.9799
75.5217
67.3495
58.4522
51.5783
47.478
45.7956
45.5617
45.9308
46.4719
47.06
47.6477
48.2437
48.8363
49.4514
50.0751
50.7447
51.4353
52.2018
52.9991
53.9074
54.8495
55.9505
57.0753
58.4271
59.7687
61.4327
63.0144
65.0653
66.9195
69.5076
71.7409
75.0533
77.6882
82.1206
86.2114
93.7419
101.039
112.913
123.266
138.279
146.03
154.49
151.425
166.617
182.277
228.76
260.524
338.745
667.318
754.86
535.818
359.573
249.449
175.609
140.922
121.101
113.206
103.629
97.873
90.2125
86.06
81.3408
79.6888
77.4203
76.8417
75.4188
74.8883
73.7538
73.0463
71.588
69.8548
67.4366
64.9223
42.7907
55.7571
70.5297
77.8986
75.472
67.3278
58.4587
51.6092
47.5213
45.8407
45.6043
45.9701
46.5083
47.0943
47.6807
48.2759
48.8682
49.4835
50.1077
50.7781
51.4697
52.2376
53.0363
53.9464
54.8904
55.9936
57.1208
58.4754
59.82
61.4875
63.0733
65.1291
66.9893
69.5842
71.8257
75.1474
77.7974
82.2482
86.3602
93.9075
101.214
113.09
123.425
138.404
146.119
154.594
151.624
166.911
182.562
228.744
260.25
336.476
659.791
747.946
531.361
356.521
247.635
174.78
140.67
121.035
113.219
103.653
97.9139
90.2528
86.1122
81.3871
79.7399
77.4647
76.8826
75.4518
74.9166
73.7762
73.0634
71.6027
69.8725
67.461
64.9552
42.7514
55.6688
70.4228
77.8146
75.4193
67.3042
58.4645
51.6402
47.565
45.8862
45.6473
46.0098
46.5451
47.129
47.7139
48.3084
48.9003
49.5158
50.1404
50.8117
51.5043
52.2735
53.0736
53.9856
54.9313
56.0369
57.1663
58.5238
59.8712
61.5423
63.1319
65.1926
67.0588
69.6604
71.91
75.2409
77.9058
82.3748
86.5074
94.0707
101.387
113.262
123.579
138.525
146.206
154.701
151.827
167.202
182.838
228.715
259.965
334.212
652.216
740.845
526.851
353.503
245.865
173.985
140.432
120.976
113.233
103.678
97.9556
90.2954
86.1661
81.4357
79.7919
77.5099
76.9234
75.4849
74.9449
73.7985
73.0804
71.6174
69.8903
67.4854
64.9882
42.7127
55.5808
70.3149
77.7278
75.3636
67.2783
58.4692
51.6708
47.6088
45.9319
45.6905
46.0497
46.582
47.1638
47.7473
48.341
48.9326
49.5482
50.1732
50.8453
51.5389
52.3095
53.1109
54.0246
54.9722
56.0799
57.2116
58.5718
59.9221
61.5966
63.1901
65.2556
67.1276
69.7358
71.9933
75.3334
78.0129
82.5
86.6525
94.231
101.555
113.43
123.728
138.641
146.29
154.807
152.031
167.488
183.105
228.671
259.668
331.954
644.594
733.559
522.283
350.508
244.126
173.215
140.204
120.921
113.246
103.703
97.9968
90.3391
86.2207
81.4855
79.8442
77.5552
76.9635
75.5174
74.9724
73.8203
73.0968
71.6315
69.9075
67.5093
65.0206
42.6746
55.4932
70.206
77.6385
75.3047
67.25
58.4725
51.7008
47.6524
45.9778
45.7339
46.0897
46.6191
47.1987
47.7807
48.3736
48.9648
49.5805
50.2059
50.8789
51.5734
52.3452
53.148
54.0635
55.0127
56.1227
57.2565
58.6195
59.9725
61.6505
63.2476
65.3179
67.1955
69.8103
72.0755
75.4247
78.1186
82.6233
86.7952
94.3881
101.719
113.593
123.871
138.752
146.371
154.912
152.236
167.768
183.362
228.613
259.358
329.701
636.931
726.092
517.65
347.524
242.411
172.464
139.982
120.868
113.257
103.726
98.0368
90.383
86.2752
81.5359
79.896
77.6001
77.0026
75.549
74.9989
73.8411
73.1121
71.6446
69.9238
67.5323
65.0522
62.4957
60.2906
58.4289
57.039
56.0721
55.4544
55.0731
54.7679
54.5487
54.2602
54.0611
53.7259
53.591
53.2987
53.4513
53.436
54.2317
54.8851
56.8277
59.1423
62.958
63.2973
42.6371
55.4061
70.0962
77.5466
75.2426
67.2192
58.4743
51.7301
47.6958
46.0237
45.7774
46.1298
46.6563
47.2337
47.8142
48.4062
48.997
49.6128
50.2386
50.9123
51.6077
52.3808
53.1849
54.102
55.0529
56.1651
57.301
58.6667
60.0223
61.7036
63.3044
65.3794
67.2625
69.8838
72.1565
75.5146
78.2227
82.7447
86.9353
94.5418
101.879
113.75
124.01
138.858
146.449
155.015
152.44
168.041
183.608
228.54
259.035
327.454
629.231
718.451
512.949
344.546
240.712
171.726
139.765
120.816
113.265
103.748
98.075
90.4265
86.3292
81.5864
79.9472
77.6443
77.0404
75.5794
75.0241
73.8607
73.1263
71.6566
69.939
67.5542
65.0829
62.5355
60.3347
58.4738
57.0818
56.1104
55.4865
55.0987
54.7872
54.563
54.2702
54.0677
53.7292
53.591
53.2955
53.4424
53.4216
54.2034
54.8456
56.7537
59.0401
62.7743
63.0592
42.6002
55.3194
69.9855
77.4521
75.1775
67.1859
58.4747
51.7588
47.739
46.0697
45.8211
46.1701
46.6935
47.2687
47.8477
48.4388
49.0291
49.645
50.2711
50.9455
51.6419
52.4162
53.2215
54.1403
55.0928
56.2071
57.3451
58.7133
60.0715
61.7561
63.3605
65.44
67.3285
69.9561
72.2361
75.6031
78.3251
82.8642
87.0727
94.6921
102.035
113.903
124.142
138.958
146.523
155.117
152.643
168.308
183.843
228.454
258.699
325.216
621.503
710.643
508.179
341.567
239.023
170.998
139.551
120.763
113.269
103.767
98.111
90.4693
86.3821
81.6365
79.9973
77.6875
77.0767
75.6086
75.0481
73.8792
73.1392
71.6674
69.953
67.575
65.1123
62.5747
60.3784
58.5185
57.1244
56.1486
55.5185
55.1241
54.8063
54.5772
54.2801
54.0741
53.7324
53.5908
53.2921
53.4332
53.4069
54.1747
54.8055
56.6792
58.9371
62.5909
62.823
42.5638
55.2331
69.8738
77.3552
75.1095
67.1503
58.4737
51.7867
47.7821
46.1158
45.8649
46.2105
46.7309
47.3038
47.8812
48.4714
49.0612
49.6771
50.3035
50.9786
51.6758
52.4513
53.2578
54.1782
55.1323
56.2487
57.3887
58.7594
60.1201
61.808
63.4157
65.4997
67.3934
70.0272
72.3145
75.6901
78.4257
82.9816
87.2076
94.8391
102.187
114.05
124.27
139.053
146.594
155.216
152.844
168.567
184.068
228.355
258.352
322.987
613.754
702.677
503.335
338.579
237.341
170.277
139.338
120.71
113.27
103.783
98.1446
90.5108
86.4338
81.686
80.0462
77.7295
77.1114
75.6363
75.0706
73.8962
73.1508
71.6768
69.9656
67.5944
65.1405
62.6129
60.4213
58.5626
57.1666
56.1864
55.55
55.1491
54.8251
54.591
54.2897
54.0803
53.7352
53.5903
53.2882
53.4235
53.3917
54.1453
54.7647
56.6041
58.833
62.4077
62.5884
42.5279
55.1471
69.7613
77.2558
75.0384
67.1124
58.4713
51.8141
47.825
46.1619
45.9088
46.2509
46.7683
47.3389
47.9147
48.5039
49.0932
49.7091
50.3357
51.0116
51.7095
52.4862
53.2939
54.2159
55.1715
56.2898
57.4318
58.805
60.1681
61.8591
63.4701
65.5585
67.4573
70.0972
72.3915
75.7757
78.5246
83.0969
87.3397
94.9827
102.334
114.193
124.392
139.142
146.661
155.313
153.042
168.819
184.282
228.243
257.994
320.769
605.991
694.558
498.418
335.58
235.659
169.561
139.126
120.655
113.266
103.796
98.1755
90.5509
86.484
81.7345
80.0937
77.7702
77.1445
75.6625
75.0917
73.9119
73.1609
71.6848
69.9769
67.6124
65.1673
62.6497
60.4632
58.6058
57.208
56.2235
55.5811
55.1736
54.8435
54.6044
54.2989
54.0859
53.7376
53.5892
53.2838
53.4132
53.3758
54.1153
54.7231
56.5282
58.7279
62.2245
62.3555
42.4925
55.0614
69.6477
77.1539
74.9646
67.0722
58.4675
51.8407
47.8676
46.2081
45.9528
46.2915
46.8057
47.374
47.9482
48.5365
49.1252
49.741
50.3678
51.0443
51.743
52.5208
53.3296
54.2531
55.2102
56.3305
57.4743
58.85
60.2154
61.9095
63.5237
65.6164
67.5202
70.166
72.4671
75.8597
78.6217
83.2101
87.469
95.1228
102.477
114.331
124.509
139.227
146.724
155.408
153.238
169.064
184.487
228.121
257.626
318.565
598.222
686.296
493.425
332.563
233.976
168.847
138.913
120.598
113.259
103.806
98.2035
90.5892
86.5323
81.7818
80.1397
77.8094
77.1759
75.6872
75.1113
73.9261
73.1696
71.6913
69.9867
67.629
65.1927
62.6851
60.5039
58.648
57.2486
56.2599
55.6115
55.1976
54.8613
54.6173
54.3076
54.0911
53.7395
53.5876
53.2788
53.4022
53.3592
54.0844
54.6806
56.4515
58.6217
62.0416
62.1241
42.4576
54.9759
69.5331
77.0497
74.888
67.0299
58.4625
51.8668
47.9102
46.2543
45.9969
46.3321
46.8432
47.4092
47.9817
48.5689
49.1571
49.7728
50.3998
51.0769
51.7763
52.5552
53.3651
54.2901
55.2486
56.3708
57.5164
58.8944
60.262
61.9591
63.5765
65.6733
67.5819
70.2336
72.5413
75.9423
78.717
83.3212
87.5957
95.2596
102.617
114.464
124.62
139.307
146.784
155.5
153.432
169.302
184.682
227.987
257.249
316.375
590.455
677.896
488.354
329.524
232.288
168.133
138.699
120.538
113.247
103.812
98.2286
90.6255
86.5788
81.8277
80.184
77.847
77.2055
75.7102
75.1292
73.9387
73.1767
71.6963
69.9951
67.6441
65.2167
62.719
60.5433
58.6892
57.2884
56.2956
55.6412
55.2209
54.8786
54.6297
54.3158
54.0957
53.7409
53.5854
53.2732
53.3906
53.3418
54.0527
54.6372
56.3741
58.5145
61.8589
61.8944
42.4231
54.8906
69.4175
76.943
74.8087
66.9855
58.4562
51.8922
47.9525
46.3006
46.0411
46.3728
46.8808
47.4444
48.0152
48.6013
49.1888
49.8044
50.4316
51.1092
51.8094
52.5892
53.4002
54.3266
55.2865
56.4105
57.5579
58.9382
60.308
62.008
63.6283
65.7293
67.6426
70.3
72.6141
76.0233
78.8105
83.4302
87.7196
95.3931
102.752
114.592
124.727
139.382
146.84
155.589
153.622
169.532
184.867
227.844
256.862
314.201
582.699
669.368
483.206
326.459
230.594
167.419
138.484
120.476
113.23
103.815
98.2507
90.6597
86.6232
81.8721
80.2265
77.883
77.2333
75.7315
75.1457
73.9499
73.1824
71.6998
70.0019
67.6577
65.2391
62.7513
60.5813
58.7293
57.3272
56.3305
55.6702
55.2436
54.8952
54.6415
54.3235
54.0998
53.7416
53.5825
53.267
53.3782
53.3238
54.0203
54.593
56.2959
58.4064
61.6765
61.6664
42.389
54.8054
69.3008
76.8341
74.7267
66.939
58.4487
51.9171
47.9947
46.3469
46.0854
46.4136
46.9184
47.4796
48.0487
48.6337
49.2205
49.8359
50.4632
51.1414
51.8422
52.623
53.435
54.3628
55.324
56.4498
57.5988
58.9813
60.3532
62.0561
63.6793
65.7843
67.7021
70.3652
72.6855
76.1027
78.9021
83.537
87.8408
95.5232
102.882
114.716
124.829
139.452
146.892
155.676
153.809
169.756
185.042
227.691
256.468
312.044
574.96
660.717
477.979
323.366
228.89
166.704
138.267
120.411
113.21
103.814
98.2697
90.6916
86.6654
81.9147
80.2672
77.9173
77.2593
75.7512
75.1605
73.9595
73.1865
71.7018
70.0072
67.6697
65.2601
62.7821
60.618
58.7681
57.365
56.3645
55.6985
55.2657
54.9113
54.6527
54.3306
54.1033
53.7419
53.5791
53.2601
53.3651
53.3049
53.987
54.5478
56.217
58.2974
61.4944
61.44
42.3552
54.7204
69.1831
76.7228
74.6422
66.8906
58.4401
51.9414
48.0367
46.3933
46.1298
46.4545
46.9561
47.5149
48.0821
48.666
49.2521
49.8673
50.4947
51.1733
51.8747
52.6565
53.4694
54.3986
55.3611
56.4886
57.6393
59.0239
60.3978
62.1034
63.7295
65.8384
67.7606
70.4291
72.7555
76.1806
78.992
83.6416
87.9593
95.65
103.009
114.835
124.926
139.518
146.941
155.76
153.992
169.972
185.209
227.53
256.066
309.906
567.249
651.953
472.672
320.241
227.177
165.986
138.047
120.343
113.185
103.809
98.2855
90.7211
86.7053
81.9556
80.3061
77.9499
77.2834
75.7692
75.1737
73.9676
73.1891
71.7023
70.0109
67.6801
65.2794
62.8112
60.6532
58.8057
57.4018
56.3977
55.726
55.2871
54.9268
54.6634
54.3371
54.1063
53.7415
53.575
53.2526
53.3513
53.2853
53.953
54.5018
56.1374
58.1875
61.3127
61.2154
42.3219
54.6354
69.0643
76.6093
74.5553
66.8403
58.4303
51.9652
48.0785
46.4398
46.1742
46.4954
46.9938
47.5501
48.1155
48.6983
49.2836
49.8986
50.526
51.205
51.907
52.6897
53.5035
54.434
55.3977
56.527
57.6791
59.0659
60.4417
62.1499
63.7787
65.8914
67.8179
70.4918
72.8241
76.257
79.08
83.7441
88.075
95.7735
103.132
114.95
125.019
139.579
146.986
155.84
154.171
170.182
185.368
227.36
255.657
307.788
559.572
643.083
467.287
317.083
225.453
165.266
137.826
120.272
113.156
103.801
98.2983
90.7482
86.7429
81.9946
80.343
77.9806
77.3058
75.7855
75.1854
73.9741
73.1903
71.7012
70.0132
67.689
65.2972
62.8386
60.687
58.8421
57.4375
56.4299
55.7528
55.3077
54.9417
54.6734
54.3431
54.1086
53.7405
53.5703
53.2444
53.3367
53.2649
53.9181
54.455
56.0571
58.0768
61.1314
60.9924
42.2889
54.5505
68.9444
76.4936
74.4658
66.7881
58.4194
51.9884
48.1202
46.4862
46.2188
46.5364
47.0316
47.5853
48.1489
48.7304
49.315
49.9297
50.557
51.2365
51.939
52.7226
53.5373
54.469
55.4339
56.5648
57.7184
59.1072
60.4848
62.1957
63.8271
65.9435
67.8741
70.5533
72.8913
76.3318
79.1661
83.8445
88.1881
95.8939
103.252
115.06
125.106
139.636
147.027
155.918
154.347
170.385
185.518
227.184
255.242
305.691
551.939
634.116
461.824
313.888
223.718
164.544
137.602
120.198
113.122
103.79
98.3081
90.7729
86.7782
82.0317
80.378
78.0095
77.3263
75.8002
75.1955
73.9791
73.1899
71.6987
70.0139
67.6964
65.3135
62.8645
60.7192
58.8771
57.4721
56.4612
55.7788
55.3277
54.9559
54.6829
54.3485
54.1104
53.7389
53.5649
53.2355
53.3214
53.2437
53.8824
54.4072
55.9761
57.9653
60.9506
60.7711
42.2562
54.4655
68.8235
76.3757
74.3741
66.7342
58.4075
52.0111
48.1618
46.5327
46.2635
46.5775
47.0694
47.6206
48.1823
48.7625
49.3463
49.9606
50.5879
51.2678
51.9708
52.7552
53.5707
54.5037
55.4696
56.6021
57.7571
59.1479
60.5273
62.2407
63.8746
65.9947
67.9292
70.6135
72.9571
76.405
79.2505
83.9427
88.2985
96.011
103.367
115.167
125.19
139.689
147.066
155.993
154.519
170.581
185.66
227
254.822
303.616
544.357
625.058
456.283
310.657
221.971
163.82
137.376
120.121
113.086
103.775
98.3149
90.7951
86.8112
82.0668
80.4111
78.0367
77.3451
75.8132
75.2041
73.9827
73.1881
71.6947
70.0131
67.7023
65.3282
62.8887
60.75
58.9109
57.5057
56.4916
55.8039
55.347
54.9695
54.6917
54.3533
54.1115
53.7367
53.5588
53.2259
53.3054
53.2218
53.8459
54.3586
55.8944
57.8531
60.7702
60.5516
42.2238
54.3806
68.7015
76.2556
74.28
66.6786
58.3945
52.0333
48.2032
46.5793
46.3082
46.6186
47.1072
47.6558
48.2156
48.7946
49.3775
49.9914
50.6187
51.2988
52.0022
52.7875
53.6038
54.5379
55.5049
56.6389
57.7953
59.1879
60.569
62.2849
63.9212
66.0448
67.9833
70.6725
73.0215
76.4768
79.3331
84.0388
88.4063
96.1251
103.479
115.269
125.269
139.738
147.1
156.065
154.687
170.771
185.794
226.811
254.397
301.564
536.834
615.92
450.666
307.388
220.213
163.093
137.148
120.042
113.045
103.757
98.3188
90.8148
86.8418
82.1
80.4423
78.0621
77.3621
75.8246
75.2112
73.9847
73.1848
71.6892
70.0109
67.7066
65.3415
62.9113
60.7793
58.9433
57.5381
56.521
55.8283
55.3655
54.9825
54.7
54.3575
54.112
53.7339
53.5521
53.2156
53.2885
53.199
53.8085
54.3091
55.8121
57.7401
60.5904
60.3336
42.1916
54.2957
68.5783
76.1334
74.1837
66.6213
58.3806
52.0551
48.2445
46.6258
46.353
46.6598
47.145
47.691
48.2488
48.8265
49.4085
50.0221
50.6492
51.3296
52.0335
52.8195
53.6365
54.5717
55.5397
56.6752
57.8329
59.2274
60.6101
62.3283
63.967
66.094
68.0362
70.7303
73.0846
76.547
79.4139
84.1328
88.5116
96.2361
103.587
115.367
125.344
139.783
147.132
156.134
154.852
170.955
185.921
226.616
253.967
299.536
529.378
606.71
444.974
304.081
218.444
162.365
136.919
119.96
113.001
103.736
98.32
90.8322
86.8702
82.1312
80.4716
78.0858
77.3775
75.8345
75.2169
73.9854
73.1802
71.6824
70.0073
67.7095
65.3532
62.9323
60.8071
58.9744
57.5693
56.5494
55.8518
55.3833
54.9948
54.7076
54.3611
54.1119
53.7304
53.5447
53.2046
53.271
53.1754
53.7704
54.2587
55.7292
57.6265
60.411
60.1174
42.1598
54.2106
68.4541
76.0092
74.0852
66.5623
58.3658
52.0764
48.2856
46.6725
46.3978
46.7011
47.1829
47.7262
48.2821
48.8584
49.4394
50.0526
50.6795
51.3602
52.0644
52.8511
53.6688
54.6052
55.5741
56.7111
57.87
59.2662
60.6504
62.371
64.0119
66.1423
68.0881
70.7869
73.1463
76.6158
79.4929
84.2248
88.6143
96.3441
103.692
115.461
125.415
139.824
147.161
156.2
155.013
171.133
186.042
226.416
253.535
297.533
521.997
597.438
439.211
300.736
216.666
161.635
136.688
119.876
112.954
103.712
98.3186
90.8472
86.8964
82.1606
80.4992
78.1078
77.3913
75.8429
75.2211
73.9847
73.1743
71.6742
70.0023
67.711
65.3635
62.9517
60.8334
59.0042
57.5995
56.5769
55.8745
55.4004
55.0064
54.7146
54.3641
54.1112
53.7264
53.5367
53.1929
53.2526
53.1511
53.7314
54.2075
55.6455
57.5121
60.2322
59.9028
42.1282
54.1256
68.3289
75.8829
73.9846
66.5019
58.3501
52.0973
48.3266
46.7191
46.4427
46.7424
47.2208
47.7614
48.3152
48.8902
49.4703
50.0829
50.7096
51.3906
52.0951
52.8825
53.7008
54.6382
55.6081
56.7464
57.9064
59.3044
60.6901
62.4129
64.0559
66.1896
68.1389
70.8424
73.2067
76.6831
79.5703
84.3147
88.7145
96.4492
103.793
115.552
125.482
139.861
147.186
156.264
155.17
171.306
186.156
226.212
253.099
295.556
514.699
588.112
433.379
297.354
214.879
160.905
136.455
119.789
112.904
103.685
98.3147
90.86
86.9205
82.1881
80.525
78.1282
77.4036
75.8498
75.2241
73.9827
73.1671
71.6648
69.996
67.7111
65.3723
62.9697
60.8582
59.0327
57.6285
56.6035
55.8964
55.4168
55.0175
54.721
54.3665
54.1099
53.7217
53.528
53.1805
53.2336
53.1259
53.6917
54.1554
55.5613
57.3972
60.0538
59.6898
42.0968
54.0404
68.2025
75.7547
73.8819
66.4399
58.3334
52.1177
48.3675
46.7657
46.4877
46.7837
47.2587
47.7966
48.3484
48.9218
49.501
50.1131
50.7396
51.4207
52.1255
52.9135
53.7325
54.6708
55.6416
56.7812
57.9424
59.342
60.7291
62.454
64.0991
66.236
68.1887
70.8967
73.2658
76.7489
79.646
84.4027
88.8124
96.5515
103.891
115.638
125.545
139.895
147.208
156.324
155.323
171.473
186.264
226.004
252.66
293.606
507.49
578.742
427.48
293.935
213.085
160.175
136.222
119.701
112.851
103.656
98.3085
90.8707
86.9426
82.2138
80.5491
78.147
77.4144
75.8554
75.2258
73.9795
73.1587
71.6541
69.9885
67.7099
65.3798
62.9861
60.8816
59.0598
57.6564
56.6291
55.9175
55.4325
55.0279
54.7268
54.3683
54.108
53.7164
53.5186
53.1674
53.2138
53.1
53.6511
54.1024
55.4764
57.2815
59.876
59.4784
42.0656
53.9551
68.0751
75.6245
73.7772
66.3764
58.316
52.1378
48.4083
46.8124
46.5327
46.8251
47.2966
47.8318
48.3814
48.9535
49.5315
50.1431
50.7693
51.4506
52.1556
52.9443
53.7638
54.7031
55.6747
56.8156
57.9778
59.379
60.7674
62.4945
64.1415
66.2815
68.2374
70.9499
73.3236
76.8134
79.72
84.4887
88.9079
96.6511
103.986
115.722
125.605
139.926
147.228
156.382
155.473
171.635
186.366
225.792
252.22
291.682
500.377
569.339
421.52
290.482
211.286
159.447
135.988
119.611
112.796
103.624
98.3002
90.8794
86.9627
82.2378
80.5717
78.1644
77.4238
75.8597
75.2263
73.9751
73.1492
71.6423
69.9798
67.7075
65.386
63.0011
60.9036
59.0857
57.6832
56.6537
55.9378
55.4475
55.0377
54.7321
54.3696
54.1055
53.7105
53.5086
53.1536
53.1932
53.0733
53.6098
54.0486
55.3909
57.1653
59.6987
59.2686
42.0347
53.8697
67.9466
75.4923
73.6706
66.3116
58.2977
52.1575
48.4489
46.8591
46.5778
46.8665
47.3345
47.8669
48.4145
48.985
49.562
50.173
50.7989
51.4802
52.1855
52.9747
53.7948
54.735
55.7073
56.8495
58.0127
59.4154
60.8051
62.5342
64.1831
66.3261
68.2852
71.002
73.3803
76.8766
79.7925
84.5729
89.0012
96.748
104.078
115.802
125.661
139.953
147.245
156.438
155.619
171.792
186.463
225.577
251.779
289.786
493.367
559.913
415.501
286.996
209.483
158.72
135.754
119.52
112.739
103.591
98.29
90.8862
86.981
82.2603
80.5928
78.1804
77.432
75.8628
75.2257
73.9696
73.1386
71.6294
69.9699
67.7038
65.3909
63.0147
60.9242
59.1104
57.709
56.6774
55.9573
55.4619
55.0469
54.7367
54.3703
54.1025
53.7039
53.498
53.1392
53.1719
53.0458
53.5677
53.994
55.3049
57.0485
59.5219
59.0603
42.004
53.7841
67.8171
75.3584
73.5621
66.2454
58.2787
52.1768
48.4894
46.9059
46.623
46.9079
47.3724
47.9021
48.4474
49.0164
49.5923
50.2027
50.8282
51.5096
52.2151
53.0049
53.8254
54.7665
55.7396
56.8829
58.0471
59.4513
60.8421
62.5732
64.224
66.3699
68.3321
71.053
73.4357
76.9384
79.8635
84.6553
89.0922
96.8424
104.167
115.879
125.715
139.977
147.26
156.491
155.762
171.944
186.555
225.36
251.336
287.918
486.465
550.474
409.429
283.48
207.678
157.996
135.52
119.428
112.68
103.555
98.278
90.8912
86.9977
82.2812
80.6124
78.195
77.439
75.8648
75.2241
73.9631
73.1271
71.6155
69.959
67.6991
65.3946
63.027
60.9435
59.1338
57.7336
56.7003
55.976
55.4755
55.0554
54.7408
54.3704
54.0988
53.6969
53.4867
53.1241
53.1499
53.0176
53.5248
53.9386
55.2182
56.9311
59.3457
58.8535
41.9734
53.6984
67.6865
75.2225
73.4517
66.1779
58.259
52.1957
48.5299
46.9526
46.6681
46.9494
47.4104
47.9372
48.4803
49.0478
49.6225
50.2323
50.8574
51.5389
52.2445
53.0347
53.8557
54.7977
55.7714
56.9159
58.081
59.4866
60.8786
62.6116
64.2641
66.4129
68.378
71.1031
73.49
76.9989
79.933
84.736
89.1812
96.9343
104.253
115.952
125.764
139.999
147.272
156.542
155.902
172.092
186.642
225.141
250.894
286.079
479.678
541.034
403.309
279.937
205.874
157.275
135.287
119.334
112.62
103.518
98.2644
90.8947
87.0128
82.3007
80.6308
78.2085
77.4448
75.8657
75.2215
73.9556
73.1146
71.6006
69.9471
67.6933
65.3972
63.0381
60.9616
59.1561
57.7573
56.7222
55.994
55.4885
55.0635
54.7444
54.37
54.0946
53.6892
53.4749
53.1084
53.1273
52.9886
53.4812
53.8824
55.131
56.8132
59.17
58.6483
41.943
53.6126
67.5549
75.085
73.3395
66.1091
58.2385
52.2143
48.5702
46.9994
46.7134
46.9909
47.4483
47.9723
48.5132
49.079
49.6526
50.2617
50.8864
51.5679
52.2736
53.0643
53.8857
54.8285
55.8029
56.9485
58.1143
59.5213
60.9144
62.6493
64.3035
66.455
68.4231
71.1521
73.5432
77.0583
80.001
84.8149
89.2681
97.0238
104.336
116.023
125.811
140.018
147.282
156.591
156.039
172.236
186.725
224.92
250.451
284.268
473.01
531.604
397.146
276.369
204.072
156.559
135.054
119.241
112.559
103.479
98.2494
90.8967
87.0265
82.319
80.648
78.2208
77.4497
75.8657
75.218
73.9472
73.1012
71.5849
69.9343
67.6864
65.3987
63.0479
60.9784
59.1772
57.7799
56.7433
56.0113
55.5009
55.0709
54.7474
54.3691
54.0899
53.681
53.4624
53.092
53.1039
52.9589
53.4368
53.8254
55.0432
56.6948
58.9948
58.4444
41.9128
53.5266
67.4223
74.9456
73.2256
66.0391
58.2174
52.2326
48.6104
47.0461
46.7586
47.0325
47.4863
48.0073
48.546
49.1102
49.6826
50.2909
50.9152
51.5966
52.3024
53.0936
53.9154
54.859
55.834
56.9806
58.1473
59.5556
60.9497
62.6863
64.3422
66.4965
68.4673
71.2002
73.5954
77.1165
80.0677
84.8923
89.3531
97.1111
104.417
116.091
125.856
140.034
147.29
156.638
156.173
172.376
186.804
224.697
250.009
282.486
466.465
522.195
390.947
272.781
202.276
155.849
134.823
119.147
112.497
103.44
98.2332
90.8974
87.0389
82.3361
80.6641
78.2321
77.4536
75.8649
75.2138
73.9381
73.0871
71.5684
69.9206
67.6787
65.3992
63.0566
60.9941
59.1972
57.8016
56.7635
56.0279
55.5127
55.0779
54.7499
54.3677
54.0847
53.6723
53.4494
53.0751
53.0799
52.9285
53.3918
53.7676
54.955
56.5759
58.8202
58.2421
41.8827
53.4404
67.2887
74.8046
73.11
65.9679
58.1956
52.2506
48.6505
47.0929
46.804
47.074
47.5243
48.0423
48.5787
49.1413
49.7124
50.3201
50.9439
51.6252
52.3311
53.1226
53.9448
54.8891
55.8647
57.0123
58.1797
59.5893
60.9844
62.7228
64.3802
66.5371
68.5106
71.2474
73.6465
77.1735
80.1332
84.9681
89.4363
97.1963
104.496
116.157
125.897
140.048
147.296
156.683
156.304
172.512
186.88
224.473
249.567
280.733
460.047
512.819
384.718
269.177
200.487
155.145
134.593
119.053
112.434
103.399
98.216
90.897
87.0502
82.3521
80.6792
78.2425
77.4568
75.8633
75.2088
73.9282
73.0723
71.5512
69.9063
67.6702
65.3988
63.0642
61.0087
59.2162
57.8224
56.783
56.0438
55.5239
55.0843
54.752
54.3659
54.079
53.663
53.4358
53.0575
53.0552
52.8974
53.3461
53.7091
54.8662
56.4565
58.6461
58.0412
41.8528
53.3541
67.1542
74.6619
72.9928
65.8956
58.1732
52.2682
48.6905
47.1397
46.8493
47.1156
47.5622
48.0774
48.6114
49.1723
49.7422
50.349
50.9723
51.6536
52.3595
53.1514
53.9739
54.9189
55.895
57.0437
58.2118
59.6226
61.0186
62.7587
64.4176
66.5771
68.5533
71.2938
73.6967
77.2295
80.1973
85.0424
89.5177
97.2795
104.572
116.22
125.936
140.06
147.3
156.727
156.433
172.646
186.952
224.249
249.127
279.009
453.761
503.487
378.465
265.56
198.708
154.448
134.364
118.959
112.37
103.358
98.198
90.8956
87.0605
82.3672
80.6935
78.2521
77.4593
75.861
75.2032
73.9177
73.0569
71.5334
69.8912
67.6609
65.3976
63.0709
61.0222
59.2342
57.8423
56.8017
56.059
55.5345
55.0902
54.7535
54.3635
54.0728
53.6533
53.4217
53.0394
53.03
52.8656
53.2997
53.65
54.777
56.3368
58.4726
57.8416
41.823
53.2675
67.0186
74.5176
72.874
65.8222
58.1502
52.2856
48.7304
47.1865
46.8947
47.1572
47.6002
48.1123
48.6441
49.2032
49.7718
50.3779
51.0007
51.6818
52.3877
53.1799
54.0028
54.9484
55.9251
57.0746
58.2434
59.6554
61.0524
62.7941
64.4544
66.6165
68.5951
71.3393
73.746
77.2846
80.2604
85.1154
89.5974
97.3607
104.646
116.28
125.973
140.07
147.303
156.769
156.56
172.775
187.021
224.024
248.688
277.315
447.607
494.212
372.197
261.935
196.941
153.759
134.138
118.865
112.307
103.316
98.1794
90.8935
87.07
82.3815
80.707
78.2609
77.4611
75.8581
75.197
73.9066
73.041
71.515
69.8755
67.6509
65.3955
63.0766
61.0347
59.2512
57.8613
56.8196
56.0736
55.5446
55.0957
54.7547
54.3608
54.0661
53.6431
53.4071
53.0207
53.0041
52.8332
53.2526
53.5901
54.6873
56.2166
58.2996
57.6435
41.7934
53.1808
66.8822
74.3717
72.7536
65.7478
58.1266
52.3028
48.7703
47.2333
46.9401
47.1989
47.6382
48.1473
48.6767
49.2341
49.8014
50.4066
51.0288
51.7098
52.4156
53.2082
54.0313
54.9776
55.9547
57.1052
58.2746
59.6878
61.0856
62.8289
64.4906
66.6552
68.6363
71.3841
73.7945
77.3386
80.3223
85.187
89.6756
97.4401
104.718
116.339
126.008
140.079
147.304
156.809
156.684
172.902
187.088
223.8
248.251
275.649
441.59
485.004
365.92
258.308
195.189
153.078
133.914
118.772
112.243
103.274
98.1603
90.8906
87.0787
82.3951
80.7198
78.2691
77.4624
75.8548
75.1904
73.8951
73.0246
71.4961
69.8593
67.6402
65.3928
63.0814
61.0464
59.2674
57.8796
56.8369
56.0877
55.5542
55.1007
54.7554
54.3576
54.059
53.6325
53.392
53.0015
52.9777
52.8002
53.205
53.5296
54.5972
56.0962
58.1273
57.4468
41.7638
53.0939
66.7448
74.2242
72.6318
65.6723
58.1026
52.3197
48.81
47.2801
46.9855
47.2405
47.6761
48.1822
48.7092
49.2648
49.8308
50.4352
51.0568
51.7376
52.4434
53.2363
54.0597
55.0065
55.9841
57.1355
58.3055
59.7198
61.1184
62.8632
64.5263
66.6933
68.6769
71.4282
73.8421
77.3918
80.3832
85.2575
89.7523
97.5179
104.788
116.395
126.041
140.085
147.304
156.848
156.807
173.027
187.152
223.575
247.816
274.012
435.71
475.875
359.642
254.682
193.454
152.408
133.693
118.68
112.18
103.232
98.141
90.8873
87.0869
82.4082
80.7321
78.2768
77.4633
75.8511
75.1834
73.8831
73.0079
71.4769
69.8427
67.6291
65.3894
63.0855
61.0572
59.2827
57.8971
56.8535
56.1012
55.5634
55.1053
54.7557
54.354
54.0516
53.6214
53.3764
52.9818
52.9507
52.7666
53.1568
53.4685
54.5068
55.9754
57.9555
57.2515
41.7344
53.0068
66.6065
74.0753
72.5086
65.5959
58.078
52.3363
48.8496
47.3269
47.0309
47.2822
47.7141
48.2171
48.7417
49.2955
49.8601
50.4636
51.0846
51.7653
52.471
53.2641
54.0877
55.0352
56.0132
57.1654
58.336
59.7514
61.1507
62.8971
64.5615
66.7308
68.7168
71.4715
73.8891
77.4442
80.4432
85.3268
89.8277
97.5941
104.857
116.45
126.072
140.09
147.304
156.887
156.927
173.149
187.214
223.35
247.383
272.404
429.968
466.837
353.373
251.065
191.739
151.747
133.475
118.589
112.118
103.19
98.1215
90.8836
87.0946
82.4209
80.744
78.2841
77.4639
75.847
75.1761
73.8709
72.9908
71.4573
69.8257
67.6175
65.3855
63.089
61.0672
59.2973
57.9139
56.8696
56.1142
55.5721
55.1096
54.7557
54.3501
54.0437
53.6099
53.3605
52.9617
52.9233
52.7325
53.1081
53.4068
54.416
55.8544
57.7844
57.0575
41.7051
52.9196
66.4673
73.9249
72.3839
65.5186
58.0529
52.3527
48.8892
47.3736
47.0764
47.3239
47.752
48.252
48.7741
49.3262
49.8894
50.492
51.1124
51.7927
52.4983
53.2917
54.1156
55.0636
56.042
57.195
58.3662
59.7826
61.1827
62.9306
64.5962
66.7679
68.7562
71.5143
73.9353
77.4958
80.5022
85.395
89.9018
97.6688
104.923
116.503
126.102
140.094
147.302
156.924
157.046
173.269
187.274
223.127
246.953
270.824
424.366
457.901
347.119
247.46
190.045
151.097
133.26
118.499
112.056
103.148
98.1021
90.8798
87.1021
82.4332
80.7555
78.2911
77.4643
75.8427
75.1686
73.8584
72.9735
71.4376
69.8083
67.6055
65.3811
63.0917
61.0766
59.3112
57.93
56.885
56.1267
55.5804
55.1135
54.7554
54.3459
54.0355
53.5981
53.3441
52.9411
52.8953
52.6978
53.0588
53.3445
54.3249
55.7331
57.6139
56.8649
41.6759
52.8321
66.3272
73.7731
72.2579
65.4404
58.0274
52.3689
48.9287
47.4204
47.1219
47.3656
47.79
48.2868
48.8065
49.3567
49.9185
50.5202
51.1399
51.8201
52.5255
53.3192
54.1432
55.0918
56.0706
57.2244
58.396
59.8135
61.2143
62.9636
64.6305
66.8045
68.795
71.5565
73.9809
77.5467
80.5605
85.4622
89.9747
97.7422
104.989
116.554
126.13
140.097
147.299
156.961
157.164
173.386
187.333
222.904
246.526
269.272
418.901
449.078
340.889
243.873
188.376
150.458
133.048
118.411
111.995
103.107
98.0829
90.8759
87.1094
82.4453
80.7668
78.2978
77.4645
75.8383
75.1609
73.8457
72.9561
71.4176
69.7908
67.5932
65.3763
63.094
61.0853
59.3244
57.9456
56.8999
56.1388
55.5883
55.1171
54.7547
54.3414
54.027
53.586
53.3273
52.9202
52.867
52.6626
53.0091
53.2818
54.2336
55.6117
57.4441
56.6738
41.6468
52.7444
66.1863
73.62
72.1306
65.3614
58.0014
52.3849
48.9681
47.4672
47.1674
47.4073
47.8279
48.3217
48.8388
49.3872
49.9476
50.5483
51.1674
51.8472
52.5526
53.3464
54.1706
55.1197
56.0988
57.2534
58.4256
59.844
61.2455
62.9962
64.6644
66.8406
68.8334
71.5981
74.0259
77.597
80.618
85.5285
90.0465
97.8143
105.053
116.604
126.157
140.099
147.296
156.996
157.28
173.502
187.39
222.682
246.101
267.748
413.576
440.378
334.692
240.31
186.732
149.831
132.84
118.324
111.935
103.066
98.0641
90.872
87.1167
82.4573
80.778
78.3043
77.4646
75.8339
75.1531
73.8329
72.9386
71.3975
69.7731
67.5807
65.3711
63.0957
61.0934
59.337
57.9606
56.9144
56.1505
55.5959
55.1203
54.7538
54.3366
54.0182
53.5735
53.3103
52.8988
52.8382
52.627
52.9589
53.2185
54.142
55.4902
57.2749
56.484
41.6178
52.6566
66.0445
73.4655
72.0021
65.2816
57.9751
52.4007
49.0074
47.514
47.2129
47.449
47.8659
48.3565
48.8711
49.4176
49.9766
50.5763
51.1947
51.8743
52.5794
53.3734
54.1978
55.1474
56.1269
57.2822
58.4549
59.8743
61.2764
63.0286
64.6979
66.8763
68.8713
71.6393
74.0704
77.6466
80.6748
85.5939
90.1174
97.8853
105.116
116.653
126.183
140.1
147.293
157.032
157.395
173.616
187.446
222.461
245.68
266.252
408.387
431.812
328.537
236.776
185.116
149.217
132.635
118.239
111.877
103.026
98.0458
90.8684
87.124
82.4694
80.7891
78.3108
77.4648
75.8294
75.1453
73.8201
72.9211
71.3775
69.7553
67.568
65.3657
63.097
61.1011
59.3491
57.9751
56.9283
56.1618
55.6032
55.1234
54.7526
54.3315
54.0092
53.5607
53.2929
52.8771
52.809
52.591
52.9084
53.1549
54.0502
55.3686
57.1065
56.2956
41.5889
52.5685
65.902
73.3097
71.8724
65.201
57.9484
52.4163
49.0466
47.5607
47.2584
47.4908
47.9038