/*--------------------------------*- C++ -*----------------------------------*\
| =========                 |                                                 |
| \\      /  F ield         | OpenFOAM: The Open Source CFD Toolbox           |
|  \\    /   O peration     | Version:  2412                                  |
|   \\  /    A nd           | Website:  www.openfoam.com                      |
|    \\/     M anipulation  |                                                 |
\*---------------------------------------------------------------------------*/
FoamFile
{
    version     2.0;
    format      ascii;
    arch        "LSB;label=32;scalar=64";
    class       volScalarField;
    location    "0.3";
    object      nut;
}
// * * * * * * * * * * * * * * * * * * * * * * * * * * * * * * * * * * * * * //

dimensions      [0 2 -1 0 0 0 0];

internalField   nonuniform List<scalar> 
13079
(
0.34743
0.363942
0.368655
0.349991
0.313544
0.275594
0.250554
0.247406
0.267867
0.300358
0.326752
0.340976
0.347033
0.349441
0.350482
0.351127
0.351649
0.352211
0.352775
0.353442
0.354114
0.354931
0.355728
0.356713
0.35763
0.358807
0.359831
0.361228
0.362325
0.363958
0.365076
0.367019
0.368181
0.370666
0.371914
0.374883
0.375924
0.379961
0.382354
0.388599
0.39183
0.398745
0.401064
0.40575
0.400899
0.398905
0.392212
0.410852
0.420625
0.442851
0.448576
0.458643
0.473808
0.455139
0.346522
0.262571
0.238234
0.25231
0.304247
0.331893
0.347804
0.34361
0.344696
0.338055
0.339487
0.336331
0.340296
0.340208
0.344478
0.345536
0.348992
0.350205
0.352204
0.351608
0.350513
0.348151
0.346314
0.347453
0.364055
0.368832
0.350236
0.313844
0.275955
0.251003
0.247927
0.268344
0.300665
0.326898
0.341045
0.347078
0.349482
0.350524
0.351172
0.351696
0.352261
0.352828
0.353499
0.354175
0.354996
0.355798
0.356789
0.357712
0.358897
0.35993
0.361338
0.362446
0.364094
0.365228
0.367192
0.368374
0.370885
0.372159
0.375165
0.376252
0.380353
0.382805
0.389139
0.392447
0.399507
0.401933
0.406895
0.402277
0.400716
0.394072
0.412456
0.421791
0.443657
0.449193
0.458677
0.472197
0.452959
0.345685
0.262891
0.239967
0.255935
0.308793
0.33618
0.351497
0.347166
0.348141
0.341674
0.34314
0.340118
0.343959
0.343731
0.347661
0.348395
0.351455
0.35232
0.353982
0.353135
0.351846
0.349354
0.347422
0.347476
0.364169
0.369009
0.350482
0.314147
0.276322
0.251457
0.248453
0.268822
0.30097
0.327043
0.341112
0.347121
0.34952
0.350564
0.351214
0.351742
0.352309
0.352879
0.353554
0.354233
0.355059
0.355864
0.356861
0.357789
0.358982
0.360022
0.36144
0.362558
0.36422
0.365368
0.367351
0.368552
0.371085
0.372382
0.375422
0.376552
0.38071
0.383215
0.389628
0.393004
0.400192
0.402711
0.407917
0.403506
0.402335
0.395733
0.413875
0.422815
0.444351
0.449719
0.458651
0.470581
0.450711
0.344733
0.263068
0.241512
0.259248
0.312874
0.339954
0.354725
0.350281
0.351165
0.344859
0.346352
0.343444
0.347167
0.346808
0.350432
0.350875
0.353585
0.354145
0.355513
0.354449
0.352995
0.350396
0.348385
0.3475
0.364283
0.369186
0.350727
0.314451
0.276692
0.251918
0.248984
0.269305
0.301276
0.327187
0.341177
0.347162
0.349557
0.350602
0.351255
0.351784
0.352355
0.352928
0.353606
0.354288
0.355117
0.355927
0.356928
0.357862
0.359061
0.360108
0.361535
0.362662
0.364336
0.365498
0.367497
0.368715
0.371269
0.372587
0.375657
0.376827
0.381037
0.383589
0.390071
0.393508
0.400808
0.403406
0.408828
0.404602
0.403779
0.397217
0.415131
0.423716
0.444946
0.450164
0.458572
0.468968
0.448403
0.343674
0.263115
0.242889
0.262281
0.316542
0.343277
0.357544
0.353006
0.353815
0.347655
0.34917
0.34636
0.349971
0.349489
0.352837
0.353023
0.355424
0.355716
0.356828
0.355578
0.353985
0.351296
0.349221
0.347524
0.364398
0.369362
0.350972
0.314755
0.277065
0.252384
0.249522
0.269792
0.301585
0.327331
0.341242
0.347201
0.349592
0.350638
0.351293
0.351825
0.352399
0.352974
0.353655
0.35434
0.355173
0.355986
0.356992
0.35793
0.359136
0.360189
0.361623
0.362759
0.364444
0.365617
0.367632
0.368866
0.371438
0.372774
0.375873
0.377079
0.381336
0.383931
0.390473
0.393963
0.40136
0.404027
0.409639
0.405577
0.405066
0.398541
0.416241
0.424507
0.445453
0.450537
0.458446
0.467365
0.44604
0.34252
0.263046
0.24412
0.265069
0.319845
0.346201
0.360004
0.355387
0.356136
0.350105
0.351638
0.348908
0.352416
0.35182
0.354921
0.354878
0.357009
0.357067
0.357957
0.356548
0.354838
0.352074
0.349947
0.348047
0.347032
0.346533
0.346739
0.347331
0.348011
0.348594
0.348839
0.349098
0.348979
0.349132
0.348807
0.349193
0.349026
0.350225
0.350649
0.353157
0.354754
0.358874
0.363081
0.367027
0.36012
0.347549
0.364512
0.369538
0.351215
0.31506
0.27744
0.252855
0.250066
0.270284
0.301897
0.327476
0.341306
0.34724
0.349626
0.350673
0.35133
0.351865
0.352441
0.353019
0.353702
0.35439
0.355227
0.356043
0.357053
0.357995
0.359206
0.360264
0.361706
0.362849
0.364545
0.365728
0.367756
0.369005
0.371594
0.372947
0.376071
0.377311
0.38161
0.384243
0.390839
0.394373
0.401856
0.404579
0.410358
0.406442
0.406211
0.399723
0.417221
0.4252
0.445882
0.450846
0.458279
0.465778
0.44363
0.341278
0.262874
0.245223
0.26764
0.322826
0.348775
0.362149
0.357464
0.358163
0.352249
0.353795
0.351132
0.354542
0.353842
0.356722
0.356478
0.358372
0.358225
0.358924
0.357379
0.355572
0.352747
0.350578
0.348651
0.347612
0.34709
0.347271
0.347833
0.348481
0.349031
0.349243
0.349469
0.349318
0.349439
0.349084
0.349441
0.349248
0.350415
0.350816
0.35328
0.354858
0.358916
0.363109
0.367022
0.360208
0.347573
0.364627
0.369714
0.351456
0.315364
0.277818
0.253331
0.250616
0.270782
0.302211
0.327622
0.34137
0.347277
0.349658
0.350706
0.351366
0.351902
0.352481
0.353061
0.353748
0.354438
0.355278
0.356096
0.357111
0.358057
0.359273
0.360336
0.361784
0.362934
0.364638
0.365831
0.367872
0.369133
0.371737
0.373106
0.376253
0.377524
0.381862
0.384528
0.39117
0.394743
0.4023
0.405071
0.410995
0.407209
0.40723
0.400779
0.418088
0.425808
0.446243
0.451099
0.458078
0.464213
0.441179
0.339956
0.26261
0.246218
0.270024
0.325525
0.351043
0.364017
0.359275
0.359934
0.354122
0.355677
0.353067
0.356388
0.355591
0.358274
0.357854
0.359541
0.359218
0.35975
0.35809
0.356202
0.353328
0.351126
0.349178
0.34812
0.347579
0.347736
0.348271
0.348889
0.349409
0.349591
0.349789
0.349609
0.349702
0.349321
0.349651
0.349436
0.350574
0.350953
0.353376
0.354933
0.358931
0.363107
0.366981
0.36025
0.347598
0.364743
0.369889
0.351696
0.315667
0.278199
0.253813
0.251173
0.271285
0.302529
0.327769
0.341433
0.347313
0.34969
0.350738
0.3514
0.351939
0.352519
0.353102
0.353791
0.354484
0.355327
0.356148
0.357166
0.358115
0.359336
0.360403
0.361858
0.363013
0.364726
0.365927
0.36798
0.369252
0.37187
0.373253
0.376421
0.377721
0.382094
0.38479
0.391472
0.395078
0.402698
0.405508
0.411558
0.407887
0.408134
0.401722
0.418854
0.426341
0.446543
0.451301
0.457847
0.462679
0.438693
0.338564
0.262267
0.247122
0.272248
0.327979
0.353044
0.365645
0.360853
0.361477
0.355755
0.357315
0.354748
0.357986
0.357101
0.35961
0.359035
0.360543
0.360066
0.360455
0.358697
0.356744
0.35383
0.351602
0.349638
0.348565
0.348006
0.348142
0.348653
0.349243
0.349736
0.349892
0.350064
0.349859
0.349927
0.349523
0.34983
0.349594
0.350705
0.351064
0.353447
0.354985
0.358921
0.363078
0.366909
0.36025
0.347623
0.364858
0.370063
0.351935
0.315971
0.278581
0.254299
0.251735
0.271793
0.30285
0.327917
0.341496
0.347349
0.34972
0.350769
0.351433
0.351973
0.352557
0.353142
0.353833
0.354528
0.355374
0.356197
0.357219
0.35817
0.359396
0.360467
0.361927
0.363088
0.364808
0.366017
0.36808
0.369364
0.371994
0.373389
0.376577
0.377904
0.382308
0.385031
0.391746
0.395381
0.403054
0.405895
0.412055
0.408486
0.408937
0.402564
0.419531
0.426808
0.44679
0.451459
0.457592
0.461179
0.436178
0.337107
0.261855
0.247953
0.274336
0.33022
0.354812
0.367062
0.362226
0.362822
0.357177
0.35874
0.356206
0.359367
0.358402
0.360756
0.360047
0.3614
0.360789
0.361055
0.359215
0.357208
0.354264
0.352016
0.350041
0.348955
0.348381
0.348497
0.348986
0.34955
0.350019
0.350151
0.350301
0.350074
0.35012
0.349695
0.34998
0.349727
0.350812
0.351152
0.353496
0.355015
0.358889
0.363025
0.366809
0.360213
0.347649
0.364973
0.370236
0.352173
0.316274
0.278967
0.25479
0.252304
0.272307
0.303174
0.328066
0.341559
0.347384
0.349749
0.350799
0.351465
0.352007
0.352593
0.35318
0.353874
0.354571
0.355419
0.356244
0.357269
0.358224
0.359453
0.360527
0.361993
0.363158
0.364885
0.366101
0.368174
0.369467
0.372109
0.373515
0.376721
0.378073
0.382506
0.385252
0.391997
0.395654
0.403372
0.406238
0.412492
0.409013
0.409649
0.403318
0.42013
0.427216
0.446991
0.451579
0.457315
0.459721
0.433639
0.335594
0.261385
0.248725
0.276312
0.332277
0.356379
0.368298
0.363421
0.363993
0.358415
0.359977
0.357468
0.360559
0.359521
0.361739
0.360912
0.362131
0.361405
0.361565
0.359657
0.357606
0.354638
0.352377
0.350394
0.349297
0.34871
0.348808
0.349276
0.349817
0.350263
0.350374
0.350504
0.350257
0.350283
0.349841
0.350106
0.349837
0.350898
0.351221
0.353526
0.355026
0.35884
0.362951
0.366684
0.360144
0.347674
0.365088
0.370409
0.352409
0.316577
0.279354
0.255286
0.252878
0.272825
0.303501
0.328216
0.341622
0.347419
0.349778
0.350828
0.351496
0.35204
0.352628
0.353217
0.353913
0.354612
0.355462
0.35629
0.357317
0.358275
0.359507
0.360585
0.362055
0.363225
0.364958
0.366181
0.368263
0.369565
0.372217
0.373633
0.376855
0.37823
0.38269
0.385456
0.392225
0.395901
0.403658
0.406541
0.412876
0.409478
0.41028
0.403994
0.420661
0.427574
0.44715
0.451664
0.457022
0.45831
0.431082
0.334031
0.260867
0.249455
0.278196
0.334178
0.357771
0.369374
0.36446
0.365012
0.359491
0.36105
0.35856
0.361586
0.360481
0.362579
0.361651
0.362754
0.361929
0.361998
0.360032
0.357948
0.354962
0.352691
0.350703
0.349599
0.348999
0.349081
0.349528
0.350047
0.350473
0.350565
0.350677
0.350413
0.350422
0.349963
0.350212
0.349927
0.350966
0.351273
0.35354
0.355022
0.358774
0.36286
0.366539
0.360047
0.3477
0.365203
0.370581
0.352644
0.316881
0.279744
0.255787
0.253458
0.273348
0.303831
0.328367
0.341686
0.347453
0.349806
0.350856
0.351526
0.352072
0.352662
0.353252
0.353951
0.354652
0.355505
0.356334
0.357364
0.358324
0.35956
0.36064
0.362114
0.363288
0.365027
0.366255
0.368346
0.369656
0.372317
0.373744
0.37698
0.378377
0.382861
0.385644
0.392434
0.396125
0.403913
0.406809
0.413212
0.409886
0.41084
0.404601
0.42113
0.427886
0.447274
0.451719
0.456714
0.456951
0.428514
0.332424
0.260311
0.250157
0.280008
0.335944
0.359012
0.370314
0.365364
0.365899
0.360426
0.36198
0.359502
0.362469
0.361304
0.363296
0.36228
0.363284
0.362373
0.362364
0.36035
0.35824
0.355241
0.352964
0.350974
0.349864
0.349253
0.349319
0.349748
0.350247
0.350654
0.350728
0.350825
0.350546
0.350539
0.350066
0.350299
0.350001
0.351018
0.351309
0.35354
0.355003
0.358694
0.362752
0.366375
0.359924
0.347726
0.365318
0.370752
0.352878
0.317184
0.280137
0.256293
0.254044
0.273876
0.304164
0.32852
0.341749
0.347487
0.349833
0.350883
0.351555
0.352103
0.352695
0.353287
0.353988
0.354691
0.355545
0.356377
0.357409
0.358371
0.35961
0.360693
0.362171
0.363348
0.365093
0.366326
0.368424
0.369742
0.372412
0.373847
0.377098
0.378515
0.38302
0.385819
0.392625
0.396328
0.404141
0.407045
0.413506
0.410244
0.411337
0.405146
0.421547
0.428159
0.447367
0.451748
0.456396
0.45565
0.425938
0.33078
0.259725
0.250843
0.281765
0.337596
0.360125
0.371136
0.366152
0.36667
0.361239
0.362785
0.360315
0.363228
0.362008
0.363906
0.362815
0.363735
0.362749
0.362673
0.36062
0.35849
0.355483
0.353203
0.351213
0.350098
0.349477
0.349529
0.34994
0.350419
0.350809
0.350868
0.350951
0.350658
0.350637
0.350152
0.35037
0.35006
0.351056
0.351333
0.353527
0.354973
0.358602
0.362631
0.366195
0.35978
0.347751
0.365433
0.370923
0.353111
0.317487
0.280532
0.256804
0.254636
0.274408
0.3045
0.328674
0.341812
0.34752
0.34986
0.35091
0.351583
0.352133
0.352727
0.353321
0.354024
0.354728
0.355585
0.356418
0.357453
0.358416
0.359659
0.360744
0.362226
0.363405
0.365156
0.366394
0.368499
0.369823
0.372501
0.373944
0.377208
0.378644
0.383169
0.385981
0.392801
0.396511
0.404344
0.407252
0.413762
0.410558
0.411778
0.405638
0.421918
0.428398
0.447432
0.451753
0.456069
0.45441
0.423361
0.329104
0.259118
0.251526
0.283483
0.339153
0.361126
0.371855
0.366837
0.367342
0.361944
0.363482
0.361015
0.363879
0.36261
0.364425
0.36327
0.364116
0.363067
0.362933
0.360848
0.358704
0.355692
0.353412
0.351423
0.350304
0.349675
0.349713
0.350107
0.350568
0.350942
0.350986
0.351057
0.350752
0.350719
0.350222
0.350427
0.350106
0.351083
0.351346
0.353504
0.354932
0.358499
0.362497
0.366001
0.359617
0.347777
0.365548
0.371093
0.353343
0.317791
0.28093
0.257319
0.255233
0.274945
0.304838
0.328829
0.341876
0.347553
0.349886
0.350936
0.351611
0.352162
0.352758
0.353354
0.354059
0.354765
0.355624
0.356458
0.357495
0.35846
0.359705
0.360793
0.362278
0.36346
0.365215
0.366458
0.368569
0.3699
0.372586
0.374036
0.377311
0.378766
0.383309
0.386132
0.392962
0.396678
0.404527
0.407435
0.413984
0.410832
0.412169
0.406083
0.422248
0.428607
0.447473
0.451739
0.455736
0.453237
0.420788
0.327402
0.258498
0.252219
0.285176
0.34063
0.362032
0.372486
0.367435
0.367927
0.362557
0.364086
0.361618
0.364437
0.363123
0.364866
0.363655
0.364439
0.363335
0.363152
0.36104
0.358886
0.355873
0.353595
0.351609
0.350488
0.349851
0.349875
0.350253
0.350697
0.351055
0.351087
0.351147
0.350831
0.350787
0.35028
0.350472
0.350141
0.351099
0.351349
0.353472
0.354881
0.358387
0.362353
0.365795
0.359437
0.347803
0.365662
0.371262
0.353573
0.318095
0.28133
0.257839
0.255835
0.275486
0.305178
0.328985
0.34194
0.347586
0.349911
0.350961
0.351638
0.352191
0.352789
0.353386
0.354093
0.354801
0.355661
0.356497
0.357536
0.358503
0.35975
0.36084
0.362328
0.363513
0.365272
0.366519
0.368637
0.369973
0.372666
0.374123
0.377409
0.378881
0.383441
0.386273
0.393111
0.39683
0.404689
0.407594
0.414177
0.411071
0.412518
0.406485
0.422542
0.428789
0.447494
0.451706
0.455398
0.452135
0.418224
0.325681
0.257872
0.252931
0.286857
0.34204
0.362856
0.373041
0.367958
0.368438
0.363089
0.364608
0.362138
0.364915
0.36356
0.365239
0.363981
0.364712
0.36356
0.363335
0.361201
0.359042
0.35603
0.353756
0.351773
0.35065
0.350006
0.350018
0.35038
0.350808
0.351152
0.351172
0.351222
0.350896
0.350842
0.350326
0.350507
0.350167
0.351106
0.351343
0.353431
0.354823
0.358268
0.3622
0.365578
0.359243
0.347829
0.365777
0.37143
0.353803
0.318399
0.281733
0.258364
0.256442
0.276031
0.305522
0.329142
0.342004
0.347618
0.349936
0.350986
0.351664
0.352219
0.352818
0.353418
0.354127
0.354835
0.355698
0.356535
0.357576
0.358544
0.359794
0.360885
0.362376
0.363563
0.365327
0.366577
0.368701
0.370043
0.372742
0.374205
0.377502
0.378989
0.383564
0.386404
0.393248
0.396968
0.404835
0.407734
0.414344
0.41128
0.412828
0.406852
0.422805
0.428948
0.447497
0.451659
0.455057
0.451107
0.415676
0.323944
0.257249
0.253673
0.288535
0.343394
0.363611
0.373531
0.368415
0.368884
0.363553
0.365061
0.362585
0.365324
0.363932
0.365555
0.364256
0.364942
0.363748
0.363487
0.361336
0.359175
0.356166
0.353897
0.351919
0.350795
0.350144
0.350145
0.350491
0.350903
0.351234
0.351243
0.351284
0.35095
0.350887
0.350363
0.350533
0.350184
0.351106
0.351331
0.353384
0.354757
0.358141
0.362039
0.365352
0.359037
0.347855
0.365891
0.371597
0.354031
0.318704
0.282139
0.258894
0.257055
0.276581
0.305867
0.3293
0.342068
0.347651
0.349961
0.35101
0.35169
0.352246
0.352848
0.353448
0.354159
0.354869
0.355733
0.356571
0.357615
0.358584
0.359836
0.360929
0.362423
0.363612
0.365379
0.366633
0.368762
0.370109
0.372814
0.374283
0.37759
0.379092
0.383681
0.386528
0.393375
0.397093
0.404965
0.407856
0.414487
0.411462
0.413104
0.407186
0.423041
0.429087
0.447484
0.451597
0.454715
0.450156
0.413147
0.322198
0.256635
0.254455
0.29022
0.344703
0.364306
0.373965
0.368816
0.369274
0.363957
0.365453
0.36297
0.365674
0.364248
0.365821
0.364488
0.365136
0.363905
0.363613
0.361449
0.359288
0.356283
0.354021
0.352048
0.350925
0.350267
0.350257
0.350588
0.350985
0.351304
0.351303
0.351335
0.350994
0.350923
0.350391
0.350551
0.350194
0.351099
0.351311
0.35333
0.354685
0.358009
0.36187
0.365119
0.358821
0.34788
0.366004
0.371764
0.354259
0.319009
0.282548
0.259428
0.257673
0.277134
0.306215
0.329459
0.342133
0.347683
0.349985
0.351034
0.351715
0.352273
0.352876
0.353478
0.354191
0.354902
0.355768
0.356607
0.357653
0.358623
0.359877
0.360971
0.362468
0.363659
0.36543
0.366687
0.368821
0.370173
0.372883
0.374357
0.377673
0.37919
0.383792
0.386643
0.393493
0.397208
0.405082
0.407963
0.41461
0.41162
0.413352
0.407493
0.423253
0.429208
0.447457
0.451524
0.454372
0.449287
0.410645
0.320447
0.256037
0.255285
0.291921
0.345975
0.364951
0.374351
0.369168
0.369617
0.364309
0.365794
0.363302
0.365974
0.364516
0.366045
0.364682
0.365298
0.364036
0.363717
0.361542
0.359384
0.356386
0.35413
0.352164
0.35104
0.350377
0.350356
0.350674
0.351056
0.351363
0.351352
0.351377
0.351029
0.35095
0.350412
0.350563
0.350198
0.351086
0.351287
0.353271
0.354608
0.357871
0.361696
0.364879
0.358596
0.347906
0.366117
0.37193
0.354486
0.319314
0.282959
0.259967
0.258296
0.277691
0.306565
0.329619
0.342197
0.347715
0.350009
0.351058
0.35174
0.352299
0.352904
0.353508
0.354222
0.354935
0.355802
0.356642
0.357689
0.358661
0.359917
0.361012
0.362511
0.363704
0.365479
0.366738
0.368878
0.370234
0.372949
0.374428
0.377753
0.379283
0.383897
0.386752
0.393602
0.397313
0.405186
0.408055
0.414715
0.411758
0.413573
0.407774
0.423444
0.429314
0.447419
0.451441
0.454029
0.4485
0.408173
0.318698
0.255461
0.256171
0.293644
0.347216
0.365553
0.374696
0.369479
0.369918
0.364617
0.366089
0.363589
0.36623
0.364744
0.366233
0.364846
0.365434
0.364144
0.363802
0.361619
0.359466
0.356474
0.354227
0.352267
0.351144
0.350476
0.350445
0.350748
0.351117
0.351412
0.351393
0.351411
0.351056
0.350971
0.350426
0.350568
0.350196
0.351067
0.351257
0.353208
0.354526
0.357729
0.361516
0.364634
0.358363
0.347932
0.36623
0.372095
0.354712
0.31962
0.283373
0.260511
0.258924
0.278251
0.306916
0.32978
0.342262
0.347746
0.350033
0.351081
0.351764
0.352325
0.352931
0.353537
0.354253
0.354967
0.355836
0.356677
0.357725
0.358698
0.359956
0.361052
0.362554
0.363748
0.365526
0.366788
0.368932
0.370292
0.373013
0.374496
0.37783
0.379372
0.383997
0.386855
0.393704
0.397409
0.40528
0.408135
0.414804
0.411877
0.413773
0.408034
0.423617
0.429406
0.44737
0.451349
0.453688
0.447798
0.405739
0.316955
0.254916
0.257122
0.295395
0.348432
0.366118
0.375006
0.369755
0.370184
0.364886
0.366347
0.363836
0.366449
0.364936
0.366391
0.364982
0.365548
0.364233
0.363871
0.361682
0.359535
0.356552
0.354313
0.352359
0.351238
0.350565
0.350524
0.350814
0.351169
0.351453
0.351426
0.351438
0.351077
0.350986
0.350435
0.350569
0.35019
0.351044
0.351223
0.35314
0.35444
0.357583
0.361331
0.364383
0.358124
0.347957
0.366342
0.372259
0.354937
0.319927
0.28379
0.261059
0.259556
0.278815
0.30727
0.329942
0.342328
0.347778
0.350056
0.351103
0.351788
0.35235
0.352958
0.353565
0.354283
0.354998
0.355868
0.35671
0.35776
0.358734
0.359994
0.361091
0.362595
0.36379
0.365571
0.366836
0.368985
0.370348
0.373073
0.374561
0.377903
0.379457
0.384093
0.386953
0.393799
0.397497
0.405363
0.408204
0.414879
0.41198
0.413953
0.408275
0.423775
0.429486
0.447313
0.451249
0.453347
0.447182
0.403348
0.315223
0.254405
0.258143
0.297178
0.349628
0.366651
0.375286
0.369999
0.37042
0.365124
0.366572
0.364049
0.366637
0.365099
0.366523
0.365096
0.365642
0.364306
0.363926
0.361733
0.359594
0.356619
0.354389
0.352442
0.351323
0.350645
0.350595
0.350872
0.351214
0.351488
0.351452
0.351458
0.351093
0.350995
0.350439
0.350565
0.350179
0.351018
0.351185
0.353069
0.35435
0.357434
0.361142
0.364129
0.35788
0.347982
0.366453
0.372422
0.355162
0.320234
0.284209
0.261611
0.260193
0.279382
0.307626
0.330105
0.342393
0.347809
0.350079
0.351125
0.351811
0.352375
0.352985
0.353593
0.354312
0.355028
0.3559
0.356743
0.357795
0.358769
0.360031
0.361129
0.362634
0.363831
0.365615
0.366882
0.369035
0.370402
0.373132
0.374624
0.377973
0.379539
0.384184
0.387045
0.393888
0.397578
0.405438
0.408263
0.414942
0.41207
0.414116
0.408499
0.423918
0.429555
0.447248
0.451143
0.453009
0.446654
0.401005
0.313507
0.253937
0.259242
0.298997
0.350807
0.367158
0.37554
0.370218
0.370629
0.365333
0.366769
0.364235
0.366798
0.365237
0.366633
0.365191
0.36572
0.364365
0.36397
0.361774
0.359643
0.356678
0.354457
0.352517
0.351399
0.350718
0.350659
0.350923
0.351252
0.351516
0.351473
0.351474
0.351103
0.351
0.350439
0.350557
0.350165
0.350988
0.351144
0.352995
0.354257
0.357281
0.360949
0.363872
0.357631
0.348007
0.366564
0.372585
0.355386
0.320542
0.284632
0.262169
0.260834
0.279952
0.307983
0.330269
0.342459
0.347841
0.350102
0.351147
0.351834
0.352399
0.353011
0.35362
0.354341
0.355058
0.355931
0.356775
0.357828
0.358803
0.360067
0.361166
0.362673
0.363871
0.365658
0.366927
0.369084
0.370455
0.373189
0.374684
0.378041
0.379617
0.384272
0.387132
0.393972
0.397652
0.405506
0.408314
0.414994
0.412147
0.414264
0.408709
0.424049
0.429616
0.447176
0.451031
0.452672
0.446213
0.398716
0.311813
0.253517
0.260424
0.300853
0.351972
0.367641
0.375772
0.370414
0.370817
0.365518
0.366942
0.364395
0.366936
0.365354
0.366724
0.365269
0.365785
0.364412
0.364004
0.361806
0.359685
0.356729
0.354518
0.352584
0.351469
0.350784
0.350716
0.350969
0.351285
0.351539
0.351489
0.351485
0.351109
0.351001
0.350436
0.350545
0.350147
0.350954
0.351099
0.352918
0.354161
0.357126
0.360754
0.363612
0.35738
0.348032
0.366674
0.372746
0.355609
0.320851
0.285057
0.26273
0.26148
0.280525
0.308342
0.330433
0.342524
0.347872
0.350124
0.351168
0.351857
0.352423
0.353036
0.353646
0.354369
0.355087
0.355962
0.356807
0.357861
0.358837
0.360102
0.361201
0.362711
0.363909
0.365699
0.36697
0.369132
0.370505
0.373243
0.374742
0.378106
0.379693
0.384356
0.387216
0.39405
0.397721
0.405566
0.408357
0.415037
0.412214
0.4144
0.408906
0.424169
0.429668
0.447099
0.450914
0.452338
0.445861
0.396486
0.310146
0.253151
0.261695
0.30275
0.353126
0.368105
0.375986
0.370591
0.370985
0.365682
0.367095
0.364536
0.367054
0.365452
0.366799
0.365334
0.365837
0.364449
0.364029
0.361831
0.359719
0.356774
0.354572
0.352645
0.351533
0.350845
0.350769
0.351009
0.351313
0.351557
0.351501
0.351491
0.351112
0.350999
0.350429
0.350531
0.350127
0.350918
0.351053
0.352838
0.354062
0.356969
0.360556
0.363349
0.357125
0.348056
0.366784
0.372907
0.355831
0.321161
0.285486
0.263296
0.262131
0.2811
0.308702
0.330598
0.34259
0.347903
0.350146
0.351189
0.351879
0.352446
0.353061
0.353673
0.354397
0.355116
0.355992
0.356837
0.357893
0.358869
0.360136
0.361236
0.362748
0.363947
0.365739
0.367012
0.369178
0.370554
0.373296
0.374798
0.378169
0.379766
0.384436
0.387295
0.394124
0.397784
0.405621
0.408393
0.415072
0.412272
0.414524
0.409091
0.42428
0.429713
0.447018
0.450793
0.452005
0.445595
0.394323
0.308512
0.252845
0.263059
0.304687
0.354268
0.368552
0.376183
0.370752
0.371137
0.36583
0.36723
0.364658
0.367156
0.365535
0.366861
0.365387
0.36588
0.364477
0.364047
0.361849
0.359748
0.356813
0.354621
0.352701
0.351591
0.3509
0.350816
0.351045
0.351337
0.351572
0.351509
0.351495
0.351111
0.350993
0.350419
0.350514
0.350104
0.35088
0.351003
0.352756
0.353961
0.35681
0.360355
0.363085
0.356869
0.34808
0.366892
0.373067
0.356053
0.321472
0.285917
0.263867
0.262785
0.281679
0.309063
0.330763
0.342657
0.347934
0.350168
0.35121
0.351901
0.35247
0.353086
0.353698
0.354424
0.355144
0.356022
0.356868
0.357925
0.358902
0.36017
0.361271
0.362783
0.363984
0.365779
0.367053
0.369222
0.370602
0.373347
0.374852
0.37823
0.379836
0.384514
0.387372
0.394194
0.397843
0.40567
0.408424
0.415101
0.412322
0.414639
0.409267
0.424383
0.429752
0.446932
0.450669
0.451674
0.445415
0.392231
0.306914
0.252604
0.264519
0.306664
0.355401
0.368984
0.376367
0.370898
0.371276
0.365961
0.367351
0.364766
0.367244
0.365605
0.366912
0.36543
0.365915
0.364499
0.364059
0.361862
0.359772
0.356847
0.354665
0.352751
0.351645
0.350951
0.35086
0.351077
0.351358
0.351583
0.351514
0.351495
0.351108
0.350985
0.350407
0.350495
0.350079
0.350839
0.350952
0.352672
0.353858
0.35665
0.360152
0.36282
0.356612
0.348103
0.367
0.373226
0.356275
0.321783
0.286352
0.264442
0.263444
0.282259
0.309426
0.33093
0.342723
0.347965
0.350189
0.351231
0.351922
0.352492
0.35311
0.353724
0.354451
0.355172
0.356051
0.356897
0.357956
0.358933
0.360203
0.361304
0.362818
0.364019
0.365817
0.367093
0.369266
0.370648
0.373397
0.374905
0.378289
0.379904
0.384589
0.387444
0.394261
0.397898
0.405714
0.40845
0.415123
0.412366
0.414746
0.409434
0.424479
0.429786
0.446843
0.450541
0.451345
0.445319
0.390217
0.30536
0.252436
0.26608
0.30868
0.356524
0.369402
0.376538
0.371033
0.371402
0.366081
0.367459
0.364861
0.36732
0.365663
0.366953
0.365464
0.365942
0.364514
0.364066
0.36187
0.359791
0.356877
0.354705
0.352798
0.351694
0.350998
0.3509
0.351106
0.351375
0.351591
0.351516
0.351493
0.351102
0.350975
0.350393
0.350473
0.350052
0.350797
0.350899
0.352587
0.353753
0.356488
0.359948
0.362554
0.356353
0.348127
0.367107
0.373384
0.356496
0.322096
0.286789
0.265021
0.264106
0.282843
0.30979
0.331096
0.342789
0.347995
0.350211
0.351251
0.351943
0.352515
0.353134
0.353749
0.354477
0.3552
0.356079
0.356927
0.357986
0.358964
0.360235
0.361337
0.362853
0.364054
0.365854
0.367132
0.369308
0.370692
0.373446
0.374956
0.378346
0.37997
0.384662
0.387514
0.394324
0.397948
0.405754
0.408471
0.41514
0.412404
0.414846
0.409593
0.424568
0.429815
0.446751
0.450411
0.451017
0.445304
0.388286
0.303853
0.252345
0.267745
0.310734
0.357639
0.369808
0.3767
0.371157
0.371518
0.366189
0.367556
0.364945
0.367386
0.365713
0.366986
0.365492
0.365964
0.364524
0.364068
0.361874
0.359807
0.356903
0.354741
0.35284
0.351739
0.351041
0.350936
0.351131
0.35139
0.351597
0.351516
0.351489
0.351094
0.350963
0.350377
0.35045
0.350023
0.350753
0.350844
0.3525
0.353646
0.356325
0.359742
0.362287
0.356094
0.348149
0.367213
0.373541
0.356716
0.32241
0.28723
0.265605
0.264772
0.283428
0.310154
0.331264
0.342856
0.348026
0.350232
0.35127
0.351964
0.352537
0.353157
0.353773
0.354503
0.355226
0.356108
0.356955
0.358016
0.358994
0.360267
0.361369
0.362886
0.364088
0.365891
0.36717
0.36935
0.370736
0.373493
0.375005
0.378402
0.380035
0.384732
0.387582
0.394384
0.397996
0.40579
0.408488
0.415152
0.412437
0.414939
0.409746
0.424652
0.429839
0.446656
0.450278
0.450689
0.445368
0.386442
0.3024
0.252338
0.269514
0.312823
0.358743
0.370204
0.376853
0.371272
0.371625
0.366287
0.367643
0.365019
0.367444
0.365754
0.367013
0.365513
0.36598
0.364529
0.364067
0.361875
0.359819
0.356926
0.354774
0.352879
0.351781
0.351082
0.35097
0.351155
0.351403
0.351601
0.351514
0.351483
0.351085
0.350949
0.350359
0.350425
0.349993
0.350707
0.350787
0.352411
0.353538
0.356161
0.359534
0.362019
0.355835
0.348172
0.367318
0.373697
0.356936
0.322724
0.287673
0.266193
0.265442
0.284015
0.31052
0.331431
0.342923
0.348057
0.350253
0.35129
0.351985
0.352558
0.35318
0.353798
0.354529
0.355253
0.356135
0.356984
0.358046
0.359024
0.360298
0.3614
0.362919
0.364122
0.365926
0.367207
0.36939
0.370779
0.373539
0.375054
0.378457
0.380097
0.384801
0.387647
0.394441
0.39804
0.405823
0.408502
0.415161
0.412466
0.415027
0.409892
0.42473
0.42986
0.446559
0.450144
0.450362
0.445507
0.384693
0.301006
0.252419
0.27139
0.314945
0.359837
0.37059
0.376998
0.371379
0.371725
0.366378
0.367723
0.365087
0.367494
0.365789
0.367034
0.36553
0.365992
0.364531
0.364062
0.361872
0.359828
0.356946
0.354804
0.352914
0.35182
0.351119
0.351002
0.351176
0.351413
0.351603
0.351511
0.351475
0.351073
0.350933
0.35034
0.350399
0.349961
0.35066
0.35073
0.352322
0.353428
0.355995
0.359326
0.361752
0.355577
0.348193
0.367421
0.373851
0.357155
0.32304
0.28812
0.266785
0.266116
0.284604
0.310887
0.3316
0.34299
0.348087
0.350273
0.351309
0.352005
0.35258
0.353203
0.353821
0.354554
0.355279
0.356163
0.357011
0.358075
0.359053
0.360329
0.361431
0.362951
0.364154
0.365961
0.367243
0.36943
0.37082
0.373583
0.375101
0.37851
0.380158
0.384867
0.387709
0.394496
0.398082
0.405853
0.408513
0.415167
0.412492
0.415111
0.410034
0.424805
0.429878
0.446461
0.450008
0.450035
0.445717
0.383043
0.299676
0.252594
0.273373
0.317096
0.36092
0.370967
0.377137
0.37148
0.371819
0.366462
0.367796
0.365147
0.367538
0.365819
0.36705
0.365542
0.366
0.36453
0.364055
0.361868
0.359836
0.356964
0.354831
0.352948
0.351857
0.351154
0.351031
0.351195
0.351422
0.351603
0.351505
0.351465
0.351061
0.350916
0.35032
0.350372
0.349928
0.350611
0.35067
0.352231
0.353317
0.35583
0.359117
0.361484
0.355319
0.348215
0.367524
0.374005
0.357374
0.323357
0.28857
0.267381
0.266793
0.285195
0.311254
0.331768
0.343057
0.348117
0.350294
0.351328
0.352025
0.352601
0.353225
0.353845
0.354579
0.355305
0.35619
0.357039
0.358103
0.359082
0.360359
0.361461
0.362983
0.364187
0.365996
0.367279
0.369468
0.370861
0.373627
0.375147
0.378562
0.380217
0.384932
0.38777
0.394549
0.398121
0.405881
0.408522
0.41517
0.412514
0.415191
0.410171
0.424876
0.429893
0.446361
0.44987
0.449707
0.445993
0.381496
0.298415
0.252869
0.275464
0.319273
0.361991
0.371335
0.37727
0.371575
0.371906
0.366539
0.367864
0.365202
0.367577
0.365843
0.367062
0.365551
0.366006
0.364525
0.364046
0.361861
0.359841
0.35698
0.354857
0.352978
0.351891
0.351187
0.351059
0.351213
0.351429
0.351602
0.351499
0.351455
0.351047
0.350898
0.350298
0.350343
0.349894
0.350562
0.35061
0.352139
0.353206
0.355663
0.358907
0.361217
0.355062
0.348235
0.367625
0.374158
0.357593
0.323675
0.289023
0.267982
0.267473
0.285788
0.311621
0.331937
0.343124
0.348148
0.350314
0.351347
0.352045
0.352621
0.353248
0.353868
0.354604
0.35533
0.356216
0.357066
0.358131
0.359111
0.360388
0.361491
0.363014
0.364218
0.366029
0.367313
0.369506
0.370901
0.37367
0.375192
0.378613
0.380275
0.384995
0.387829
0.3946
0.398159
0.405906
0.408528
0.41517
0.412534
0.415267
0.410303
0.424943
0.429906
0.44626
0.449731
0.449378
0.446331
0.380058
0.29723
0.253248
0.277659
0.32147
0.363049
0.371695
0.377397
0.371666
0.371989
0.366612
0.367927
0.365252
0.367611
0.365864
0.367071
0.365556
0.366009
0.364519
0.364034
0.361852
0.359844
0.356994
0.35488
0.353007
0.351923
0.351218
0.351085
0.351229
0.351435
0.3516
0.351491
0.351443
0.351032
0.350879
0.350276