/*--------------------------------*- C++ -*----------------------------------*\
| =========                 |                                                 |
| \\      /  F ield         | OpenFOAM: The Open Source CFD Toolbox           |
|  \\    /   O peration     | Version:  2412                                  |
|   \\  /    A nd           | Website:  www.openfoam.com                      |
|    \\/     M anipulation  |                                                 |
\*---------------------------------------------------------------------------*/
FoamFile
{
    version     2.0;
    format      ascii;
    arch        "LSB;label=32;scalar=64";
    class       volScalarField;
    location    "0.3";
    object      p;
}
// * * * * * * * * * * * * * * * * * * * * * * * * * * * * * * * * * * * * * //

dimensions      [0 2 -2 0 0 0 0];

internalField   nonuniform List<scalar> 
13079
(
111026
110880
110772
110540
110413
110211
110100
109933
109815
109635
109493
109290
109121
108879
108684
108391
108167
107806
107552
107099
106815
106242
105932
105197
104873
103918
103602
102347
102080
100410
100266
98009
98112.7
95011
95571
91222.3
92578.5
86351.9
89060.2
79975.2
84980.1
71640.1
80556.9
60957.3
76005.5
47102.8
70728.9
26768.3
60878.9
-6997.51
44079.4
-61949.9
16319.2
-159059
235.841
-75106.9
9324.16
-40896.4
14316.2
-13675
24098.7
8545.87
33273.4
24129.3
40298.2
35502.7
46522.7
44328.6
51780.8
50926.6
55955.2
55802.9
59225.3
59429.6
61817
62241.2
64066
111011
110868
110761
110533
110406
110206
110096
109929
109810
109630
109488
109285
109116
108874
108679
108386
108162
107800
107546
107093
106809
106235
105926
105189
104866
103909
103595
102338
102073
100400
100259
97997.9
98106.6
94998.7
95565.5
91208.5
92573.8
86336.6
89056.8
79959.7
84979.1
71625.6
80556.1
60940.3
75996.5
47070.8
70698.3
26716.6
60841.1
-7038.7
44046.4
-61926.7
16385.2
-158525
335.813
-75114
9351.85
-40880.9
14354.1
-13670.8
24113.3
8531.48
33275.7
24115.8
40301.1
35491.9
46522.3
44316.8
51777.3
50915.3
55950.8
55793.4
59222
59423.6
61816.4
62239.7
64068.2
110996
110855
110750
110525
110400
110201
110092
109924
109805
109625
109483
109280
109111
108869
108674
108380
108156
107794
107540
107086
106803
106228
105919
105181
104859
103901
103588
102329
102067
100390
100253
97986.8
98100.5
94986.4
95560
91194.7
92569
86321.3
89053.4
79944.1
84978.1
71611.1
80555.3
60923.4
75987.8
47039.5
70668.8
26666
60804.1
-7079.1
44014.2
-61902.5
16450.7
-157995
435.257
-75120.4
9378.63
-40866.9
14390.3
-13668
24126.8
8516.3
33277.2
24101.7
40303.4
35480.4
46521.3
44304.5
51773.5
50903.6
55946.2
55783.8
59218.4
59417.4
61815.7
62238
64070.2
110981
110843
110738
110517
110393
110196
110087
109920
109801
109621
109479
109275
109107
108864
108669
108375
108151
107788
107535
107080
106797
106221
105913
105174
104853
103893
103581
102320
102060
100380
100246
97975.9
98094.5
94974.2
95554.6
91181
92564.4
86306.1
89050
79928.6
84977
71596.5
80554.4
60906.5
75979.3
47008.7
70640
26616.4
60767.9
-7118.78
43982.8
-61877.3
16515.7
-157468
534.135
-75126
9404.61
-40854.2
14424.9
-13666.5
24139.4
8500.47
33278
24087
40305
35468.5
46519.9
44291.8
51769.2
50891.6
55941.4
55774
59214.7
59411.2
61814.8
62236.2
64072
110966
110830
110727
110509
110386
110191
110082
109916
109797
109616
109474
109271
109102
108859
108664
108370
108146
107783
107529
107074
106791
106214
105907
105166
104846
103884
103574
102311
102053
100370
100240
97965
98088.4
94962.1
95549.2
91167.4
92559.7
86291
89046.7
79913.2
84975.9
71582.1
80553.6
60889.9
75971
46978.3
70611.8
26567.4
60732.3
-7157.85
43952
-61851.4
16580.3
-156946
632.025
-75131.4
9429.87
-40842.3
14458.5
-13665.7
24151.2
8484.06
33278.3
24071.8
40306.1
35456
46518
44278.7
51764.6
50879.3
55936.3
55764
59210.8
59404.7
61813.8
62234.2
64073.7
64745
66314.2
67179.6
68534.5
69463.3
70573.7
71469.5
72317
73154.2
73752.7
74564
74929.1
75778.8
75899.5
76881.6
76698.9
77960.6
77333.2
79127.1
77774.5
80548.5
77987.5
110952
110818
110716
110501
110380
110186
110078
109912
109792
109612
109470
109266
109097
108855
108659
108365
108141
107777
107524
107068
106785
106207
105900
105159
104839
103876
103568
102302
102047
100360
100233
97954.1
98082.5
94950
95543.8
91153.8
92555.1
86276
89043.3
79898
84974.9
71567.8
80552.9
60873.4
75963
46948.3
70584
26519.1
60697.1
-7196.34
43921.8
-61824.7
16644.6
-156427
728.919
-75136.6
9454.47
-40831.2
14491.3
-13665.6
24162.4
8467.16
33278.1
24056.1
40306.6
35443.2
46515.6
44265.2
51759.6
50866.8
55930.9
55753.8
59206.8
59398.2
61812.6
62232.1
64075.2
64745.4
66315.7
67179
68533.5
69460.6
70570.3
71465.4
72312.4
73150.1
73748.2
74561.1
74925.2
75777.5
75896.6
76882.4
76697
77963.9
77332.5
79132.7
77775.5
80554.1
77991.1
110938
110806
110705
110493
110373
110181
110073
109907
109788
109607
109465
109261
109093
108850
108654
108359
108136
107771
107518
107061
106779
106200
105894
105151
104833
103868
103561
102293
102040
100351
100227
97943.3
98076.5
94938
95538.4
91140.3
92550.5
86261.1
89040.1
79882.8
84973.9
71553.6
80552.2
60857.1
75955.1
46918.7
70556.6
26471.2
60662.4
-7234.3
43892.2
-61797.4
16708.5
-155912
824.89
-75141.6
9478.49
-40820.7
14523.3
-13666.2
24173
8449.85
33277.4
24040.1
40306.8
35430
46512.8
44251.4
51754.3
50854
55925.3
55743.5
59202.6
59391.5
61811.4
62230
64076.7
64745.6
66316.9
67178.3
68532.4
69457.9
70566.9
71461.4
72307.9
73146.2
73743.6
74558.1
74921.4
75776.2
75893.7
76883.2
76695.1
77967.1
77331.6
79138
77776.2
80559.2
77994.5
110924
110794
110695
110485
110366
110176
110068
109903
109783
109603
109461
109257
109088
108845
108650
108354
108131
107765
107512
107055
106773
106193
105888
105144
104826
103860
103555
102284
102033
100341
100221
97932.6
98070.6
94926
95533
91126.9
92545.9
86246.3
89036.8
79867.7
84973
71539.6
80551.7
60841
75947.4
46889.5
70529.6
26423.9
60628.1
-7271.76
43863.1
-61769.5
16771.9
-155401
919.984
-75146.2
9502.03
-40810.8
14554.7
-13667.3
24183.1
8432.19
33276.3
24023.7
40306.5
35416.4
46509.7
44237.4
51748.8
50841.1
55919.6
55733
59198.2
59384.8
61810.1
62227.7
64078.1
64745.6
66318.1
67177.5
68531.2
69455.1
70563.4
71457.4
72303.4
73142.2
73739.2
74555.2
74917.5
75774.9
75890.7
76884
76693.1
77970.1
77330.7
79143.1
77776.8
80563.9
77997.7
110910
110782
110684
110478
110360
110171
110064
109899
109779
109598
109456
109252
109083
108840
108645
108349
108126
107760
107507
107049
106768
106187
105882
105136
104820
103852
103548
102275
102027
100331
100214
97921.9
98064.7
94914.1
95527.7
91113.5
92541.4
86231.6
89033.6
79852.7
84972.1
71525.6
80551.1
60825
75939.9
46860.5
70502.9
26377
60594.1
-7308.74
43834.5
-61741
16834.9
-154894
1014.24
-75150.3
9525.17
-40801.4
14585.4
-13668.9
24192.8
8414.25
33274.9
24007
40305.9
35402.6
46506.3
44223.1
51743
50827.9
55913.6
55722.5
59193.8
59378
61808.7
62225.4
64079.4
64745.6
66319.1
67176.6
68530
69452.3
70560
71453.4
72298.9
73138.2
73734.7
74552.3
74913.7
75773.6
75887.8
76884.7
76691.1
77973
77329.7
79148.1
77777.4
80568.4
78000.8
110896
110770
110673
110470
110353
110166
110059
109895
109775
109594
109452
109247
109079
108835
108640
108344
108120
107754
107502
107043
106762
106180
105876
105129
104814
103844
103541
102266
102020
100321
100208
97911.2
98058.8
94902.2
95522.4
91100.3
92536.9
86216.9
89030.4
79837.9
84971.2
71511.7
80550.7
60809.1
75932.5
46831.8
70476.6
26330.6
60560.6
-7345.28
43806.3
-61712
16897.3
-154391
1107.69
-75154
9547.98
-40792.3
14615.5
-13670.9
24202.1
8396.07
33273.2
23990.1
40305
35388.6
46502.7
44208.7
51737
50814.7
55907.6
55711.8
59189.3
59371.1
61807.2
62223
64080.7
64745.5
66320.2
67175.8
68528.8
69449.5
70556.6
71449.4
72294.4
73134.3
73730.2
74549.4
74909.9
75772.3
75884.8
76885.4
76689.1
77976
77328.8
79153
77778
80572.8
78004
110882
110759
110663
110462
110346
110160
110055
109890
109770
109589
109447
109243
109074
108830
108635
108339
108115
107749
107496
107037
106756
106173
105870
105121
104807
103836
103535
102257
102014
100312
100202
97900.6
98052.9
94890.4
95517.1
91087
92532.4
86202.3
89027.3
79823.1
84970.4
71497.9
80550.2
60793.3
75925.2
46803.4
70450.5
26284.6
60527.3
-7381.4
43778.6
-61682.5
16959.2
-153891
1200.38
-75157.2
9570.53
-40783.7
14645.2
-13673.2
24211.2
8377.7
33271.3
23973
40303.9
35374.3
46498.8
44194.1
51730.9
50801.3
55901.4
55701.1
59184.8
59364.2
61805.6
62220.6
64081.8
64745.4
66321.1
67174.8
68527.6
69446.7
70553.1
71445.4
72289.9
73130.3
73725.7
74546.4
74906
75771
75881.9
76886
76687.1
77978.8
77327.8
79157.8
77778.7
80577.1
78007.2
110869
110747
110653
110454
110340
110155
110050
109886
109766
109585
109443
109238
109070
108826
108630
108333
108110
107743
107491
107031
106750
106166
105863
105114
104801
103828
103528
102249
102007
100302
100195
97890
98047.1
94878.6
95511.9
91073.9
92527.9
86187.9
89024.2
79808.4
84969.5
71484.2
80549.8
60777.7
75918
46775.2
70424.7
26239
60494.4
-7417.11
43751.4
-61652.5
17020.6
-153395
1292.33
-75159.9
9592.89
-40775.3
14674.5
-13675.8
24219.9
8359.19
33269.1
23955.7
40302.5
35359.9
46494.7
44179.4
51724.6
50787.9
55895.2
55690.4
59180.1
59357.2
61804
62218.1
64083
64745.2
66322.1
67173.9
68526.3
69443.9
70549.7
71441.4
72285.4
73126.4
73721.3
74543.5
74902.2
75769.7
75878.9
76886.7
76685.1
77981.6
77326.9
79162.5
77779.3
80581.2
78010.5
110855
110736
110642
110447
110333
110150
110045
109882
109761
109580
109438
109234
109065
108821
108626
108328
108105
107738
107485
107024
106744
106160
105857
105107
104794
103820
103522
102240
102001
100293
100189
97879.5
98041.3
94866.9
95506.7
91060.8
92523.5
86173.4
89021.1
79793.8
84968.7
71470.6
80549.4
60762.1
75910.8
46747.2
70399.2
26193.8
60461.8
-7452.45
43724.5
-61622
17081.3
-152903
1383.57
-75162
9615.11
-40767.1
14703.4
-13678.7
24228.4
8340.56
33266.8
23938.3
40300.9
35345.4
46490.5
44164.6
51718.2
50774.4
55888.9
55679.6
59175.5
59350.3
61802.4
62215.6
64084
64745
66323
67172.9
68525.1
69441.1
70546.3
71437.4
72280.9
73122.5
73716.8
74540.6
74898.4
75768.3
75876
76887.3
76683.1
77984.4
77325.9
79167.2
77779.9
80585.1
78013.8
110842
110725
110632
110439
110327
110145
110041
109878
109757
109576
109434
109229
109061
108816
108621
108323
108100
107732
107480
107018
106739
106153
105851
105100
104788
103812
103515
102231
101994
100283
100183
97869
98035.5
94855.3
95501.5
91047.7
92519.1
86159.1
89018.1
79779.3
84968
71457
80549
60746.5
75903.8
46719.4
70373.9
26149
60429.5
-7487.41
43698
-61591.2
17141.3
-152415
1474.13
-75163.5
9637.25
-40759.1
14732
-13681.7
24236.7
8321.85
33264.3
23920.8
40299.2
35330.8
46486.2
44149.7
51711.8
50760.8
55882.5
55668.8
59170.8
59343.3
61800.7
62213.1
64085.1
64744.7
66323.8
67172
68523.8
69438.4
70542.9
71433.4
72276.4
73118.5
73712.4
74537.7
74894.6
75767
75873
76887.9
76681.1
77987.1
77325
79171.7
77780.5
80588.9
78017
110829
110713
110622
110432
110320
110140
110036
109874
109753
109572
109429
109225
109056
108811
108616
108318
108095
107726
107475
107012
106733
106147
105845
105092
104782
103804
103509
102223
101988
100274
100177
97858.6
98029.7
94843.7
95496.3
91034.8
92514.7
86144.8
89015
79764.8
84967.2
71443.5
80548.6
60731.1
75896.8
46691.8
70348.8
26104.5
60397.5
-7522.03
43671.8
-61559.9
17200.8
-151930
1564.04
-75164.4
9659.36
-40751.2
14760.2
-13685
24244.8
8303.09
33261.7
23903.2
40297.3
35316.1
46481.7
44134.8
51705.2
50747.3
55876.1
55658
59166
59336.3
61799
62210.5
64086
64744.4
66324.7
67171
68522.5
69435.6
70539.5
71429.4
72272
73114.6
73707.9
74534.7
74890.8
75765.6
75870.1
76888.4
76679.1
77989.8
77324
79176.1
77781.2
80592.6
78020.4
110816
110702
110612
110424
110314
110135
110032
109869
109748
109567
109425
109220
109052
108807
108612
108313
108090
107721
107469
107006
106727
106140
105839
105085
104776
103796
103503
102214
101982
100264
100171
97848.2
98023.9
94832.1
95491.1
91021.8
92510.3
86130.7
89012
79750.4
84966.4
71430
80548.3
60715.7
75889.8
46664.3
70323.9
26060.3
60365.7
-7556.3
43646.1
-61528.2
17259.5
-151449
1653.32
-75164.6
9681.5
-40743.4
14788.3
-13688.4
24252.7
8284.29
33259
23885.6
40295.2
35301.3
46477.2
44119.8
51698.7
50733.7
55869.6
55647.2
59161.3
59329.3
61797.3
62207.9
64086.9
64744.1
66325.5
67170
68521.2
69432.8
70536.1
71425.5
72267.5
73110.7
73703.5
74531.8
74886.9
75764.3
75867.1
76889
76677
77992.5
77323.1
79180.5
77781.8
80596.1
78023.7
110803
110691
110602
110417
110307
110130
110027
109865
109744
109563
109421
109216
109047
108802
108607
108308
108085
107715
107464
107000
106722
106133
105833
105078
104769
103788
103496
102205
101975
100255
100164
97837.9
98018.2
94820.6
95485.9
91009
92506
86116.5
89009
79736.1
84965.7
71416.6
80547.9
60700.4
75882.9
46637
70299.3
26016.5
60334.2
-7590.25
43620.6
-61496.2
17317.5
-150972
1742
-75164.1
9703.69
-40735.7
14816.1
-13691.9
24260.5
8265.49
33256.2
23867.9
40293.1
35286.4
46472.6
44104.8
51692
50720.1
55863.2
55636.3
59156.5
59322.3
61795.5
62205.3
64087.8
64743.8
66326.2
67168.9
68519.9
69430
70532.7
71421.6
72263.1
73106.9
73699.1
74528.9
74883.1
75762.9
75864.2
76889.5
76675
77995
77322.1
79184.8
77782.4
80599.5
78027
110791
110680
110592
110409
110301
110125
110022
109861
109740
109558
109416
109211
109043
108797
108602
108303
108080
107710
107459
106994
106716
106127
105827
105071
104763
103780
103490
102197
101969
100245
100158
97827.6
98012.5
94809.2
95480.8
90996.2
92501.7
86102.5
89006
79721.9
84964.9
71403.3
80547.5
60685.1
75876
46609.9
70274.8
25973
60303
-7623.88
43595.5
-61463.8
17374.9
-150498
1830.09
-75162.9
9725.99
-40727.9
14843.6
-13695.5
24268.3
8246.69
33253.4
23850.2
40290.9
35271.6
46467.9
44089.8
51685.3
50706.6
55856.7
55625.5
59151.8
59315.3
61793.7
62202.6
64088.7
64743.4
66326.9
67167.9
68518.6
69427.2
70529.3
71417.7
72258.7
73103
73694.7
74526
74879.4
75761.6
75861.3
76890
76673
77997.6
77321.2
79189
77783.1
80602.8
78030.4
110778
110670
110582
110402
110294
110120
110018
109857
109735
109554
109412
109207
109038
108793
108598
108298
108075
107705
107453
106989
106710
106120
105821
105064
104757
103772
103483
102188
101963
100236
100152
97817.3
98006.8
94797.8
95475.7
90983.5
92497.4
86088.5
89003.1
79707.8
84964.2
71390
80547.1
60669.8
75869.2
46582.9
70250.5
25929.8
60271.9
-7657.2
43570.7
-61431.1
17431.5
-150028
1917.61
-75161
9748.41
-40720.1
14871
-13699.3
24275.9
8227.91
33250.5
23832.4
40288.6
35256.7
46463.1
44074.8
51678.7
50693
55850.2
55614.8
59147
59308.3
61791.9
62199.9
64089.5
64742.9
66327.6
67166.8
68517.3
69424.5
70526
71413.8
72254.3
73099.2
73690.3
74523.1
74875.6
75760.2
75858.3
76890.5
76671
78000.1
77320.2
79193
77783.8
80605.9
78033.8
110766
110659
110573
110395
110288
110115
110013
109853
109731
109550
109408
109202
109034
108788
108593
108293
108070
107699
107448
106983
106705
106114
105815
105057
104751
103765
103477
102180
101956
100227
100146
97807.1
98001.1
94786.5
95470.6
90970.8
92493.1
86074.6
89000.1
79693.7
84963.4
71376.8
80546.7
60654.6
75862.4
46556
70226.3
25886.8
60241.2
-7690.22
43546.3
-61398.1
17487.4
-149561
2004.58
-75158.4
9771.01
-40712.3
14898.3
-13703
24283.4
8209.18
33247.5
23814.7
40286.2
35241.8
46458.4
44059.9
51672
50679.5
55843.7
55604
59142.2
59301.3
61790.1
62197.2
64090.2
64742.5
66328.3
67165.8
68516
69421.7
70522.6
71409.9
72249.9
73095.3
73686
74520.3
74871.8
75758.8
75855.4
76891
76669
78002.6
77319.3
79197.1
77784.4
80608.9
78037.2
110754
110648
110563
110388
110282
110110
110009
109848
109727
109545
109403
109198
109030
108783
108588
108288
108066
107694
107443
106977
106699
106107
105809
105049
104745
103757
103471
102171
101950
100217
100140
97796.9
97995.5
94775.2
95465.5
90958.2
92488.8
86060.8
88997.2
79679.7
84962.7
71363.6
80546.3
60639.5
75855.5
46529.2
70202.4
25844.2
60210.6
-7722.94
43522.1
-61364.7
17542.5
-149098
2091.04
-75155.1
9793.79
-40704.5
14925.4
-13706.9
24290.9
8190.48
33244.6
23797
40283.8
35226.9
46453.6
44044.9
51665.2
50666
55837.2
55593.3
59137.4
59294.3
61788.2
62194.5
64091
64742
66329
67164.7
68514.7
69419
70519.3
71406
72245.6
73091.5
73681.6
74517.4
74868
75757.4
75852.5
76891.5
76667
78005
77318.3
79201
77785.1
80611.8
78040.6
110741
110638
110554
110380
110275
110105
110004
109844
109723
109541
109399
109193
109025
108779
108584
108283
108061
107688
107438
106971
106694
106101
105804
105042
104738
103749
103465
102163
101944
100208
100134
97786.8
97989.9
94763.9
95460.5
90945.6
92484.6
86047
88994.3
79665.8
84961.9
71350.4
80545.8
60624.3
75848.7
46502.5
70178.5
25801.8
60180.3
-7755.38
43498.2
-61331.1
17596.9
-148639
2176.98
-75151
9816.8
-40696.5
14952.3
-13710.7
24298.3
8171.85
33241.6
23779.3
40281.3
35212
46448.7
44030
51658.5
50652.5
55830.7
55582.5
59132.6
59287.3
61786.4
62191.8
64091.7
64741.5
66329.6
67163.6
68513.4
69416.3
70516
71402.2
72241.3
73087.7
73677.3
74514.5
74864.3
75756.1
75849.5
76891.9
76665
78007.3
77317.4
79204.8
77785.8
80614.6
78044
110729
110627
110544
110373
110269
110100
110000
109840
109718
109537
109395
109189
109021
108774
108579
108278
108056
107683
107433
106965
106688
106095
105798
105035
104732
103742
103458
102155
101938
100199
100128
97776.7
97984.3
94752.7
95455.4
90933.1
92480.3
86033.4
88991.4
79651.9
84961.2
71337.3
80545.4
60609.2
75841.9
46476
70154.9
25759.8
60150.1
-7787.54
43474.7
-61297.2
17650.5
-148183
2262.43
-75146.2
9840.05
-40688.5
14979.1
-13714.6
24305.6
8153.28
33238.6
23761.7
40278.7
35197.1
46443.9
44015.1
51651.8
50639
55824.2
55571.9
59127.9
59280.4
61784.5
62189
64092.3
64741
66330.2
67162.5
68512.1
69413.5
70512.7
71398.4
72237
73083.9
73672.9
74511.7
74860.5
75754.7
75846.6
76892.3
76663
78009.7
77316.4
79208.6
77786.5
80617.2
78047.5
110718
110617
110535
110366
110263
110096
109995
109836
109714
109533
109391
109185
109017
108769
108575
108273
108051
107678
107427
106959
106683
106088
105792
105028
104726
103734
103452
102146
101931
100190
100122
97766.7
97978.7
94741.6
95450.4
90920.7
92476.1
86019.7
88988.5
79638.1
84960.4
71324.3
80544.9
60594.1
75835.1
46449.5
70131.4
25718
60120.2
-7819.42
43451.4
-61263.1
17703.4
-147730
2347.4
-75140.6
9863.56
-40680.4
15005.8
-13718.6
24313
8134.78
33235.6
23744.1
40276.2
35182.2
46439
44000.3
51645.1
50625.6
55817.8
55561.2
59123.1
59273.4
61782.6
62186.3
64093
64740.4
66330.8
67161.4
68510.7
69410.8
70509.4
71394.6
72232.7
73080.2
73668.6
74508.8
74856.8
75753.3
75843.7
76892.8
76661
78012
77315.5
79212.3
77787.2
80619.8
78050.9
110706
110607
110526
110359
110257
110091
109990
109832
109710
109528
109386
109180
109012
108765
108570
108268
108046
107672
107422
106953
106677
106082
105786
105021
104720
103726
103446
102138
101925
100181
100116
97756.7
97973.1
94730.5
95445.4
90908.3
92471.9
86006.2
88985.7
79624.3
84959.6
71311.3
80544.4
60579.1
75828.3
46423.2
70108
25676.4
60090.5
-7851.03
43428.4
-61228.7
17755.6
-147281
2431.93
-75134.3
9887.34
-40672.1
15032.4
-13722.5
24320.2
8116.36
33232.6
23726.5
40273.6
35167.4
46434.2
43985.5
51638.4
50612.3
55811.3
55550.6
59118.4
59266.5
61780.7
62183.5
64093.6
64739.8
66331.3
67160.3
68509.4
69408.1
70506.1
71390.8
72228.4
73076.4
73664.3
74506
74853.1
75751.9
75840.8
76893.1
76659
78014.2
77314.6
79215.9
77787.9
80622.2
78054.4
110694
110597
110516
110352
110250
110086
109986
109827
109706
109524
109382
109176
109008
108760
108566
108264
108041
107667
107417
106948
106672
106076
105780
105015
104714
103719
103440
102130
101919
100172
100110
97746.7
97967.6
94719.4
95440.5
90895.9
92467.7
85992.7
88982.8
79610.7
84958.9
71298.3
80543.8
60564
75821.5
46396.9
70084.7
25635.1
60061
-7882.37
43405.6
-61194
17807.1
-146835
2516.01
-75127.2
9911.41
-40663.8
15058.9
-13726.5
24327.5
8098.02
33229.6
23709
40271
35152.6
46429.3
43970.7
51631.8
50599
55804.9
55540
59113.6
59259.6
61778.8
62180.7
64094.2
64739.2
66331.9
67159.2
68508.1
69405.4
70502.8
71387.1
72224.1
73072.7
73660.1
74503.1
74849.3
75750.5
75837.9
76893.5
76657
78016.4
77313.7
79219.4
77788.6
80624.5
78057.9
110683
110587
110507
110345
110244
110081
109981
109823
109701
109520
109378
109171
109004
108756
108561
108259
108037
107662
107412
106942
106666
106069
105775
105008
104708
103711
103434
102121
101913
100163
100104
97736.8
97962.1
94708.4
95435.5
90883.7
92463.6
85979.3
88980
79597.1
84958.1
71285.4
80543.3
60549
75814.7
46370.8
70061.6
25594.1
60031.7
-7913.44
43383.2
-61159.1
17857.8
-146393
2599.66
-75119.3
9935.79
-40655.3
15085.2
-13730.5
24334.7
8079.76
33226.6
23691.5
40268.3
35137.8
46424.4
43956
51625.1
50585.7
55798.5
55529.5
59108.9
59252.7
61776.9
62177.9
64094.7
64738.6
66332.4
67158
68506.8
69402.8
70499.6
71383.4
72219.9
73069
73655.8
74500.3
74845.6
75749.1
75835
76893.9
76655
78018.6
77312.7
79222.9
77789.3
80626.7
78061.4
110671
110577
110498
110338
110238
110076
109977
109819
109697
109516
109374
109167
108999
108751
108557
108254
108032
107657
107407
106936
106661
106063
105769
105001
104702
103704
103428
102113
101907
100154
100098
97726.9
97956.6
94697.4
95430.5
90871.5
92459.4
85965.9
88977.2
79583.5
84957.3
71272.5
80542.7
60534
75807.9
46344.7
70038.7
25553.3
60002.6
-7944.26
43361
-61123.9
17907.9
-145954
2682.91
-75110.7
9960.47
-40646.7
15111.5
-13734.4
24341.9
8061.6
33223.7
23674.1
40265.7
35123.1
46419.6
43941.4
51618.5
50572.5
55792.1
55519
59104.2
59245.9
61775
62175.1
64095.2
64738
66332.9
67156.9
68505.5
69400.1
70496.4
71379.6
72215.7
73065.3
73651.6
74497.5
74841.9
75747.7
75832.1
76894.2
76653
78020.7
77311.8
79226.2
77790
80628.7
78064.9
110660
110567
110489
110331
110232
110071
109972
109815
109693
109512
109370
109163
108995
108747
108552
108249
108027
107652
107402
106930
106655
106057
105763
104994
104696
103696
103421
102105
101901
100145
100093
97717.1
97951.1
94686.5
95425.6
90859.3
92455.3
85952.6
88974.4
79570
84956.5
71259.6
80542.1
60519
75801.1
46318.7
70015.8
25512.8
59973.7
-7974.81
43339
-61088.6
17957.3
-145518
2765.77
-75101.4
9985.46
-40638.1
15137.6
-13738.4
24349
8043.53
33220.7
23656.7
40263
35108.4
46414.7
43926.8
51611.9
50559.4
55785.7
55508.5
59099.5
59239.1
61773.1
62172.3
64095.7
64737.3
66333.3
67155.8
68504.1
69397.4
70493.2
71376
72211.5
73061.6
73647.4
74494.7
74838.2
75746.4
75829.2
76894.5
76651
78022.8
77310.9
79229.5
77790.7
80630.7
78068.4
110649
110557
110481
110324
110226
110066
109968
109811
109689
109507
109365
109159
108991
108742
108548
108244
108022
107646
107397
106925
106650
106051
105757
104987
104690
103689
103415
102097
101895
100136
100087
97707.3
97945.6
94675.7
95420.7
90847.2
92451.2
85939.4
88971.6
79556.6
84955.7
71246.8
80541.5
60504.1
75794.3
46292.8
69993.1
25472.5
59945
-8005.11
43317.3
-61053
18006
-145085
2848.26
-75091.2
10010.8
-40629.3
15163.6
-13742.4
24356.2
8025.55
33217.8
23639.4
40260.3
35093.8
46409.9
43912.2
51605.3
50546.3
55779.4
55498.1
59094.8
59232.2
61771.2
62169.5
64096.2
64736.6
66333.8
67154.6
68502.8
69394.8
70490
71372.3
72207.4
73058
73643.2
74491.9
74834.6
75745
75826.3
76894.8
76649
78024.9
77310
79232.7
77791.5
80632.6
78071.9
110638
110548
110472
110317
110220
110061
109963
109807
109685
109503
109361
109154
108987
108738
108543
108240
108018
107641
107392
106919
106645
106044
105752
104980
104684
103681
103409
102089
101889
100127
100081
97697.6
97940.2
94664.9
95415.8
90835.2
92447.1
85926.3
88968.8
79543.3
84954.9
71234
80540.8
60489.1
75787.4
46267
69970.5
25432.5
59916.5
-8035.16
43295.9
-61017.2
18054.2
-144656
2930.38
-75080.3
10036.4
-40620.4
15189.5
-13746.4
24363.3
8007.67
33214.9
23622.2
40257.6
35079.2
46405
43897.8
51598.8
50533.2
55773.1
55487.8
59090.2
59225.5
61769.2
62166.7
64096.6
64735.9
66334.2
67153.5
68501.5
69392.2
70486.8
71368.6
72203.2
73054.3
73639
74489.2
74830.9
75743.6
75823.4
76895.1
76647
78026.9
77309.1
79235.9
77792.2
80634.4
78075.4
110627
110538
110463
110310
110214
110056
109959
109802
109680
109499
109357
109150
108982
108733
108539
108235
108013
107636
107387
106914
106639
106038
105746
104974
104679
103674
103403
102081
101883
100118
100075
97687.9
97934.7
94654.1
95411
90823.2
92443
85913.2
88966
79530
84954.1
71221.2
80540.1
60474.2
75780.6
46241.3
69948.1
25392.7
59888.1
-8064.96
43274.7
-60981.1
18101.7
-144231
3012.16
-75068.7
10062.3
-40611.4
15215.3
-13750.3
24370.4
7989.89
33212
23605.1
40254.9
35064.6
46400.2
43883.3
51592.2
50520.3
55766.8
55477.4
59085.5
59218.7
61767.3
62163.8
64097.1
64735.2
66334.6
67152.3
68500.2
69389.6
70483.7
71365
72199.1
73050.7
73634.8
74486.4
74827.3
75742.2
75820.5
76895.4
76645
78028.8
77308.2
79238.9
77793
80636.1
78079
110616
110528
110454
110304
110208
110052
109954
109798
109676
109495
109353
109146
108978
108729
108535
108230
108008
107631
107382
106908
106634
106032
105741
104967
104673
103667
103397
102073
101877
100110
100069
97678.2
97929.4
94643.4
95406.1
90811.2
92439
85900.1
88963.3
79516.8
84953.3
71208.5
80539.4
60459.3
75773.7
46215.6
69925.7
25353.1
59860
-8094.5
43253.8
-60944.9
18148.6
-143808
3093.62
-75056.3
10088.5
-40602.4
15241
-13754.3
24377.5
7972.21
33209.2
23588
40252.2
35050.1
46395.4
43869
51585.7
50507.3
55760.6
55467.1
59080.9
59211.9
61765.4
62161
64097.5
64734.5
66335
67151.1
68498.9
69386.9
70480.5
71361.4
72195
73047.1
73630.7
74483.6
74823.6
75740.8
75817.7
76895.6
76643.1
78030.8
77307.3
79241.9
77793.7
80637.6
78082.5
110605
110519
110446
110297
110202
110047
109950
109794
109672
109491
109349
109142
108974
108725
108530
108225
108004
107626
107377
106902
106629
106026
105735
104960
104667
103659
103391
102065
101871
100101
100064
97668.6
97924
94632.7
95401.3
90799.4
92434.9
85887.2
88960.5
79503.6
84952.5
71195.8
80538.6
60444.4
75766.9
46190.1
69903.5
25313.8
59832
-8123.81
43233.2
-60908.5
18195.1
-143389
3174.76
-75043.2
10115
-40593.4
15266.6
-13758.3
24384.6
7954.63
33206.3
23570.9
40249.5
35035.7
46390.6
43854.7
51579.3
50494.5
55754.3
55456.9
59076.3
59205.2
61763.4
62158.2
64097.8
64733.7
66335.4
67150
68497.5
69384.4
70477.4
71357.8
72190.9
73043.5
73626.5
74480.9
74820
75739.4
75814.8
76895.9
76641.1
78032.6
77306.4
79244.9
77794.5
80639.1
78086
110595
110510
110437
110290
110196
110042
109945
109790
109668
109487
109345
109137
108970
108720
108526
108221
107999
107621
107372
106897
106623
106020
105729
104954
104661
103652
103385
102057
101865
100092
100058
97659.1
97918.6
94622.1
95396.5
90787.5
92430.9
85874.3
88957.8
79490.5
84951.6
71183.2
80537.8
60429.5
75760
46164.6
69881.4
25274.7
59804.3
-8152.86
43212.7
-60871.9
18241
-142972
3255.61
-75029.3
10141.8
-40584.2
15292
-13762.2
24391.6
7937.15
33203.5
23554
40246.8
35021.3
46385.8
43840.4
51572.8
50481.6
55748.1
55446.7
59071.7
59198.5
61761.5
62155.3
64098.2
64733
66335.8
67148.8
68496.2
69381.8
70474.3
71354.3
72186.8
73040
73622.4
74478.1
74816.4
75738
75812
76896.1
76639.1
78034.5
77305.5
79247.7
77795.3
80640.5
78089.6
110584
110500
110429
110284
110190
110037
109941
109786
109664
109483
109341
109133
108966
108716
108521
108216
107994
107616
107367
106891
106618
106014
105724
104947
104655
103645
103380
102049
101859
100084
100052
97649.5
97913.3
94611.6
95391.7
90775.8
92426.9
85861.4
88955
79477.4
84950.8
71170.6
80537
60414.6
75753.1
46139.2
69859.5
25235.9
59776.7
-8181.67
43192.5
-60835.1
18286.4
-142559
3336.17
-75014.7
10168.9
-40575.1
15317.3
-13766.2
24398.7
7919.77
33200.8
23537.1
40244.1
35006.9
46381.1
43826.3
51566.4
50468.9
55741.9
55436.6
59067.1
59191.9
61759.5
62152.5
64098.5
64732.2
66336.1
67147.6
68494.9
69379.2
70471.2
71350.7
72182.8
73036.4
73618.3
74475.4
74812.8
75736.6
75809.1
76896.3
76637.2
78036.3
77304.6
79250.5
77796.1
80641.8
78093.2
110574
110491
110421
110277
110184
110032
109936
109782
109660
109479
109337
109129
108961
108711
108517
108211
107990
107611
107362
106886
106613
106008
105718
104940
104650
103638
103374
102041
101853
100075
100046
97640.1
97908
94601
95386.9
90764.1
92422.9
85848.7
88952.3
79464.4
84949.9
71158
80536.2
60399.8
75746.2
46113.9
69837.6
25197.3
59749.3
-8210.24
43172.6
-60798.1
18331.4
-142150
3416.47
-74999.3
10196.1
-40565.9
15342.4
-13770.1
24405.7
7902.49
33198
23520.3
40241.4
34992.6
46376.3
43812.2
51560
50456.2
55735.8
55426.5
59062.6
59185.2
61757.6
62149.6
64098.8
64731.4
66336.4
67146.4
68493.6
69376.6
70468.1
71347.2
72178.8
73032.9
73614.2
74472.7
74809.2
75735.2
75806.3
76896.5
76635.2
78038.1
77303.8
79253.2
77796.8
80643
78096.7
110564
110482
110412
110271
110178
110028
109932
109778
109656
109475
109333
109125
108957
108707
108513
108207
107985
107606
107357
106880
106608
106002
105713
104934
104644
103630
103368
102033
101847
100066
100041
97630.6
97902.7
94590.6
95382.1
90752.4
92418.9
85836
88949.6
79451.5
84949
71145.4
80535.3
60385
75739.3
46088.7
69815.9
25158.9
59722.1
-8238.58
43152.9
-60760.9
18376
-141743
3496.5
-74983.3
10223.6
-40556.8
15367.5
-13774.1
24412.7
7885.32
33195.3
23503.5
40238.6
34978.4
46371.6
43798.1
51553.7
50443.5
55729.7
55416.4
59058
59178.6
61755.6
62146.7
64099.1
64730.6
66336.7
67145.3
68492.3
69374.1
70465.1
71343.7
72174.8
73029.4
73610.2
74470
74805.6
75733.8
75803.4
76896.6
76633.2
78039.8
77302.9
79255.8
77797.6
80644.2
78100.3
110554
110473
110404
110264
110172
110023
109927
109774
109651
109471
109329
109121
108953
108703
108508
108202
107981
107601
107352
106875
106603
105996
105707
104927
104638
103623
103362
102025
101841
100058
100035
97621.2
97897.4
94580.1
95377.4
90740.8
92414.9
85823.3
88946.9
79438.6
84948.1
71132.9
80534.4
60370.1
75732.4
46063.5
69794.3
25120.8
59695
-8266.67
43133.4
-60723.6
18420.2
-141339
3576.3
-74966.6
10251.3
-40547.7
15392.3
-13778
24419.7
7868.25
33192.6
23486.9
40235.9
34964.2
46366.9
43784.2
51547.4
50431
55723.6
55406.4
59053.5
59172
61753.7
62143.9
64099.3
64729.7
66337
67144.1
68491
69371.6
70462
71340.2
72170.8
73025.9
73606.1
74467.3
74802
75732.4
75800.6
76896.8
76631.3
78041.5
77302
79258.4
77798.4
80645.2
78103.8
110543
110464
110396
110257
110167
110018
109923
109770
109647
109467
109325
109117
108949
108699
108504
108198
107976
107596
107347
106869
106597
105990
105702
104921
104632
103616
103356
102018
101836
100049
100029
97611.9
97892.1
94569.8
95372.7
90729.3
92411
85810.7
88944.2
79425.8
84947.3
71120.5
80533.5
60355.4
75725.5
46038.5
69772.8
25082.8
59668.2
-8294.52
43114.2
-60686
18464.1
-140939
3655.86
-74949.1
10279.1
-40538.6
15417.1
-13781.9
24426.7
7851.27
33190
23470.3
40233.2
34950.1