/*--------------------------------*- C++ -*----------------------------------*\
| =========                 |                                                 |
| \\      /  F ield         | OpenFOAM: The Open Source CFD Toolbox           |
|  \\    /   O peration     | Version:  2412                                  |
|   \\  /    A nd           | Website:  www.openfoam.com                      |
|    \\/     M anipulation  |                                                 |
\*---------------------------------------------------------------------------*/
FoamFile
{
    version     2.0;
    format      ascii;
    arch        "LSB;label=32;scalar=64";
    class       surfaceScalarField;
    location    "0.3";
    object      phi;
}
// * * * * * * * * * * * * * * * * * * * * * * * * * * * * * * * * * * * * * //

dimensions      [0 3 -1 0 0 0 0];

oriented        oriented;

internalField   nonuniform List<scalar> 
25926
(
0.00749384
-0.0259468
0.00743781
-0.0216084
0.00739512
-0.0148422
0.00735266
-0.00606273
0.00731195
0.00303091
0.00727889
0.010012
0.00726218
0.0136866
0.0072631
0.0137898
0.00727143
0.0117521
0.00727877
0.00959691
0.00728416
0.00812838
0.00728964
0.00718177
0.00729555
0.00638049
0.007302
0.00571174
0.00730842
0.00505432
0.00731482
0.00452036
0.00732053
0.00393644
0.00732586
0.00351299
0.00733005
0.0029881
0.00733371
0.00265841
0.00733587
0.00216493
0.00733754
0.00192655
0.00733735
0.00141479
0.00733699
0.00130033
0.00733443
0.000762239
0.0073322
0.000781207
0.00732738
0.000192252
0.00732369
0.000383723
0.0073168
-0.00031174
0.00731224
0.000130285
0.00730356
-0.000731193
0.00729861
7.27186e-07
0.00728805
-0.00110369
0.0072829
1.4521e-05
0.00727014
-0.00139543
0.00726482
0.000191118
0.00724902
-0.00160417
0.00724197
0.000588798
0.00722125
-0.00152124
0.00721355
0.00165404
0.00719579
-0.000305893
0.0072008
0.00418664
0.00720234
0.00226347
0.00723594
0.00747795
0.00726601
0.00412013
0.007324
0.00799621
0.00734291
6.88583e-05
0.00736669
0.00128953
0.00735529
-0.00707687
0.00739934
-0.00656553
0.00745042
-0.0147658
0.00755149
-0.0374098
0.00770725
-0.0623031
0.00787933
0.0155381
0.00785972
0.0477355
0.00773794
0.0218177
0.00756695
-0.00135109
0.00747316
-0.000195277
0.00742618
-0.00382431
0.00742872
0.00212067
0.00742163
-0.00130079
0.00743073
0.00276791
0.00742811
-0.000286855
0.00744154
0.00313405
0.00744831
0.000868653
0.0074672
0.00333445
0.0074761
0.000907337
0.00748795
0.00199264
0.00748701
-0.000532285
0.00748558
-0.000213068
0.00747332
-0.00243996
0.00745936
-0.00247827
0.00743657
-0.00416993
0.00741242
-0.00416393
0.00738443
-0.005059
0.00736
-0.00457088
-0.00454281
0.00749337
-0.0258644
0.00743659
-0.0215516
0.00739333
-0.0147989
0.00735089
-0.00602029
0.00731086
0.00307095
0.00727892
0.010044
0.00726346
0.0137021
0.00726535
0.0137879
0.0072742
0.0117433
0.00728183
0.00958929
0.00728745
0.00812276
0.00729315
0.00717608
0.00729923
0.0063744
0.00730583
0.00570513
0.00731237
0.00504779
0.00731887
0.00451385
0.00732466
0.00393065
0.00733006
0.00350759
0.00733432
0.00298385
0.00733803
0.0026547
0.00734025
0.00216271
0.00734198
0.00192482
0.00734184
0.00141493
0.00734152
0.00130065
0.00733902
0.000764743
0.00733684
0.000783386
0.00733207
0.000197017
0.00732843
0.000387367
0.0073216
-0.000304907
0.00731708
0.000134805
0.00730845
-0.000722566
0.00730355
5.63155e-06
0.00729304
-0.00109318
0.00728793
1.96323e-05
0.00727522
-0.00138272
0.00726994
0.000196406
0.0072542
-0.00158843
0.0072472
0.000595797
0.00722661
-0.00150065
0.00721905
0.0016616
0.0072015
-0.000288345
0.0072067
0.00418144
0.00720841
0.00226176
0.00724208
0.00744428
0.00727204
0.00409017
0.00732967
0.00793858
0.00734821
5.0322e-05
0.00737183
0.00126591
0.00736055
-0.00706559
0.00740421
-0.00660919
0.00745448
-0.0148161
0.00755221
-0.0375075
0.00770212
-0.0624531
0.00787287
0.0153673
0.00785661
0.0477518
0.00773734
0.021937
0.00756795
-0.00118171
0.00747532
-0.000102655
0.00742885
-0.00377783
0.00743143
0.00211809
0.0074242
-0.00129355
0.00743324
0.00275887
0.00743062
-0.000284229
0.00744408
0.00312059
0.00745083
0.000861904
0.00746969
0.00331558
0.00747851
0.000898526
0.00749028
0.00198086
0.00748929
-0.000531292
0.00748786
-0.000211638
0.00747562
-0.00242772
0.00746172
-0.00246437
0.00743903
-0.00414724
0.007415
-0.00413991
0.00738716
-0.00503115
0.00736286
-0.00454658
-0.00452187
0.00749291
-0.0257816
0.0074354
-0.0214941
0.00739158
-0.0147551
0.00734918
-0.0059779
0.00730981
0.00311032
0.00727896
0.0100748
0.00726474
0.0137163
0.00726757
0.0137851
0.00727695
0.0117339
0.00728487
0.00958137
0.00729073
0.0081169
0.00729663
0.00717017
0.00730289
0.00636814
0.00730965
0.00569838
0.0073163
0.00504113
0.0073229
0.00450725
0.00732878
0.00392478
0.00733425
0.00350211
0.00733857
0.00297953
0.00734235
0.00265092
0.00734462
0.00216043
0.0073464
0.00192304
0.00734632
0.00141501
0.00734606
0.00130091
0.0073436
0.000767197
0.00734148
0.000785513
0.00733677
0.000201729
0.00733317
0.000390957
0.0073264
-0.00029813
0.00732192
0.000139279
0.00731335
-0.000713995
0.00730849
1.04951e-05
0.00729804
-0.00108273
0.00729296
2.47066e-05
0.00728032
-0.00137008
0.00727506
0.000201661
0.00725939
-0.00157276
0.00725245
0.00060274
0.00723199
-0.00148019
0.00722458
0.001669
0.00720724
-0.000271003
0.00721262
0.00417606
0.00721449
0.00225989
0.00724822
0.00741056
0.00727807
0.00406032
0.00733534
0.00788131
0.00735353
3.21296e-05
0.00737701
0.00124243
0.00736584
-0.00705442
0.00740908
-0.00665243
0.00745851
-0.0148655
0.00755291
-0.0376019
0.00769698
-0.0625971
0.00786637
0.015198
0.00785349
0.0477646
0.00773678
0.0220537
0.00756904
-0.00101396
0.00747756
-1.11717e-05
0.00743154
-0.00373181
0.00743414
0.00211548
0.00742679
-0.0012862
0.00743578
0.00274988
0.00743315
-0.0002816
0.00744664
0.00310709
0.00745338
0.000855173
0.0074722
0.00329676
0.00748092
0.000889799
0.00749263
0.00196916
0.0074916
-0.000530256
0.00749017
-0.000210209
0.00747796
-0.00241551
0.00746413
-0.00245054
0.00744153
-0.00412465
0.00741763
-0.00411602
0.00738993
-0.00500345
0.00736575
-0.0045224
-0.00450099
0.00749247
-0.0256983
0.00743425
-0.0214359
0.00738987
-0.0147107
0.00734752
-0.00593554
0.0073088
0.00314905
0.00727903
0.0101046
0.00726602
0.0137293
0.00726979
0.0137813
0.00727969
0.011724
0.0072879
0.00957317
0.007294
0.0081108
0.00730011
0.00716406
0.00730655
0.0063617
0.00731345
0.00569149
0.00732022
0.00503436
0.00732693
0.00450055
0.00733289
0.00391882
0.00733844
0.00349656
0.00734282
0.00297515
0.00734666
0.00264709
0.00734899
0.0021581
0.00735083
0.0019212
0.0073508
0.00141504
0.00735059
0.00130113
0.00734819
0.000769594
0.00734611
0.000787591
0.00734146
0.000206384
0.00733792
0.0003945
0.0073312
-0.000291412
0.00732677
0.000143706
0.00731826
-0.000705482
0.00731344
1.53168e-05
0.00730304
-0.00107233
0.007298
2.97416e-05
0.00728542
-0.0013575
0.0072802
0.00020688
0.0072646
-0.00155716
0.00725771
0.000609625
0.00723739
-0.00145986
0.00723013
0.00167625
0.007213
-0.000253867
0.00721856
0.0041705
0.00722059
0.00225786
0.00725435
0.00737679
0.00728408
0.00403059
0.007341
0.00782439
0.00735887
1.4263e-05
0.00738221
0.00121909
0.00737114
-0.00704335
0.00741396
-0.00669525
0.00746253
-0.0149141
0.00755359
-0.037693
0.00769182
-0.0627354
0.00785984
0.0150299
0.00785034
0.0477741
0.00773626
0.0221678
0.00757021
-0.000847916
0.00747985
7.91882e-05
0.00743425
-0.00368621
0.00743686
0.00211287
0.00742939
-0.00127873
0.00743834
0.00274093
0.00743571
-0.000278972
0.00744923
0.00309357
0.00745594
0.000848463
0.00747471
0.00327799
0.00748336
0.000881153
0.00749501
0.00195751
0.00749393
-0.000529181
0.00749251
-0.000208786
0.00748034
-0.00240334
0.00746657
-0.00243677
0.00744407
-0.00410215
0.0074203
-0.00409225
0.00739273
-0.00497588
0.00736868
-0.00449836
-0.00448019
0.00749204
-0.0256146
0.00743312
-0.021377
0.00738822
-0.0146658
0.0073459
-0.00589323
0.00730782
0.00318713
0.00727912
0.0101333
0.00726731
0.0137411
0.007272
0.0137766
0.00728242
0.0117136
0.00729092
0.00956467
0.00729725
0.00810446
0.00730358
0.00715773
0.0073102
0.00635508
0.00731725
0.00568444
0.00732414
0.00502747
0.00733094
0.00449375
0.00733699
0.00391277
0.00734262
0.00349093
0.00734707
0.0029707
0.00735097
0.00264319
0.00735336
0.00215571
0.00735525
0.00191931
0.00735528
0.00141502
0.00735512
0.00130128
0.00735277
0.000771939
0.00735075
0.000789615
0.00734615
0.000210983
0.00734266
0.00039799
0.00733599
-0.000284748
0.00733162
0.000148081
0.00732316
-0.000697024
0.00731838
2.00957e-05
0.00730804
-0.00106199
0.00730305
3.47365e-05
0.00729053
-0.00134498
0.00728535
0.000212062
0.00726981
-0.00154163
0.00726299
0.000616449
0.0072428
-0.00143967
0.0072357
0.00168336
0.00721877
-0.000236937
0.00722451
0.00416477
0.00722668
0.00225568
0.00726049
0.00734299
0.0072901
0.00400099
0.00734667
0.00776782
0.00736422
-3.29565e-06
0.00738744
0.00119587
0.00737646
-0.00703236
0.00741882
-0.00673761
0.00746653
-0.0149618
0.00755425
-0.0377807
0.00768666
-0.0628678
0.00785328
0.0148633
0.00784717
0.0477803
0.00773574
0.0222792
0.00757142
-0.000683598
0.00748217
0.000168436
0.00743698
-0.00364101
0.00743959
0.00211025
0.00743201
-0.00127115
0.00744092
0.00273202
0.0074383
-0.000276351
0.00745183
0.00308004
0.00745852
0.00084178
0.00747724
0.00325926
0.00748581
0.000872585
0.0074974
0.00194593
0.00749629
-0.000528074
0.00749488
-0.000207372
0.00748274
-0.0023912
0.00746904
-0.00242307
0.00744664
-0.00407974
0.007423
-0.00406861
0.00739556
-0.00494845
0.00737163
-0.00447443
0.00735089
-0.00445945
0.00733739
-0.00361309
0.00732913
-0.00318617
0.00732645
-0.0024352
0.00732626
-0.00213747
0.00732736
-0.00181986
0.0073271
-0.00183833
0.00732451
-0.00193639
0.00731881
-0.00213278
0.00730974
-0.00242684
0.00729798
-0.00259449
0.00728286
-0.00288728
0.00726619
-0.00283646
0.00724572
-0.00304487
0.007225
-0.00268308
0.0071985
-0.00271514
0.00717311
-0.00195008
0.00713728
-0.0016431
0.00710485
-0.000358434
0.00705467
0.000773422
0.00701273
0.00277125
0.00695091
0.00590365
0.0103756
0.00749162
-0.0255305
0.00743203
-0.0213174
0.0073866
-0.0146204
0.00734433
-0.00585096
0.00730689
0.00322457
0.00727923
0.0101609
0.0072686
0.0137517
0.0072742
0.013771
0.00728514
0.0117026
0.00729393
0.00955588
0.00730051
0.00809788
0.00730705
0.00715118
0.00731385
0.00634829
0.00732104
0.00567725
0.00732805
0.00502045
0.00733495
0.00448684
0.00734109
0.00390664
0.00734679
0.00348523
0.00735131
0.00296617
0.00735527
0.00263923
0.00735772
0.00215326
0.00735966
0.00191736
0.00735975
0.00141494
0.00735964
0.00130139
0.00735735
0.000774227
0.00735538
0.000791588
0.00735083
0.000215526
0.0073474
0.000401428
0.00734079
-0.000278145
0.00733647
0.000152408
0.00732807
-0.000688623
0.00732333
2.48309e-05
0.00731305
-0.00105171
0.00730809
3.96902e-05
0.00729564
-0.00133253
0.0072905
0.000217207
0.00727504
-0.00152616
0.00726827
0.000623211
0.00724823
-0.00141962
0.00724128
0.00169031
0.00722455
-0.000220213
0.00723046
0.00415885
0.00723279
0.00225335
0.00726663
0.00730915
0.00729611
0.00397151
0.00735233
0.0077116
0.00736959
-2.05607e-05
0.00739268
0.00117278
0.00738178
-0.00702146
0.00742368
-0.00677952
0.0074705
-0.0150086
0.0075549
-0.0378651
0.0076815
-0.0629944
0.00784671
0.0146981
0.00784396
0.047783
0.00773523
0.022388
0.00757268
-0.000521046
0.00748454
0.000256579
0.00743972
-0.00359619
0.00744231
0.00210765
0.00743464
-0.00126347
0.00744352
0.00272314
0.00744091
-0.000273737
0.00745446
0.00306649
0.00746111
0.000835126
0.00747979
0.00324058
0.00748828
0.000864095
0.00749981
0.0019344
0.00749867
-0.000526939
0.00749727
-0.000205969
0.00748518
-0.00237911
0.00747154
-0.00240943
0.00744924
-0.00405744
0.00742572
-0.00404509
0.00739842
-0.00492115
0.00737461
-0.00445061
0.00735393
-0.00443877
0.00734042
-0.00359958
0.00733209
-0.00317784
0.00732932
-0.00243243
0.00732902
-0.00213717
0.00733001
-0.00182085
0.00732966
-0.00183798
0.00732703
-0.00193376
0.00732131
-0.00212707
0.00731226
-0.00241779
0.00730055
-0.00258277
0.00728549
-0.00287223
0.00726892
-0.00281988
0.00724855
-0.0030245
0.00722797
-0.00266251
0.00720165
-0.00268882
0.00717648
-0.00192491
0.00714098
-0.00160759
0.00710892
-0.000326376
0.00705944
0.000822896
0.00701822
0.00281247
0.00695801
0.00596386
0.0104123
0.00749121
-0.0254459
0.00743096
-0.0212571
0.00738504
-0.0145745
0.00734282
-0.00580873
0.00730599
0.00326139
0.00727937
0.0101876
0.00726989
0.0137612
0.0072764
0.0137645
0.00728784
0.0116912
0.00729693
0.00954679
0.00730375
0.00809106
0.0073105
0.00714443
0.00731748
0.00634131
0.00732482
0.00566992
0.00733195
0.00501332
0.00733896
0.00447984
0.00734518
0.00390042
0.00735095
0.00347946
0.00735554
0.00296159
0.00735956
0.00263521
0.00736207
0.00215075
0.00736408
0.00191536
0.00736421
0.0014148
0.00736416
0.00130144
0.00736192
0.000776462
0.00736
0.000793507
0.00735552
0.000220012
0.00735213
0.000404813
0.00734559
-0.000271599
0.00734131
0.000156686
0.00733297
-0.000680283
0.00732828
2.95217e-05
0.00731805
-0.00104148
0.00731314
4.46018e-05
0.00730075
-0.00132014
0.00729565
0.000222311
0.00728026
-0.00151078
0.00727357
0.000629906
0.00725366
-0.00139972
0.00724686
0.0016971
0.00723035
-0.000203693
0.00723643
0.00415277
0.0072389
0.00225088
0.00727276
0.00727529
0.00730211
0.00394216
0.00735799
0.00765573
0.00737497
-3.75457e-05
0.00739794
0.00114981
0.00738711
-0.00701063
0.00742853
-0.00682094
0.00747446
-0.0150545
0.00755553
-0.0379462
0.00767634
-0.0631152
0.00784013
0.0145343
0.00784073
0.0477824
0.00773472
0.022494
0.00757397
-0.000360295
0.00748693
0.00034362
0.00744247
-0.00355173
0.00744504
0.00210508
0.00743728
-0.00125571
0.00744615
0.00271427
0.00744354
-0.000271136
0.0074571
0.00305294
0.00746372
0.000828502
0.00748234
0.00322196
0.00749076
0.000855678
0.00750223
0.00192293
0.00750107
-0.00052578
0.00749968
-0.00020458
0.00748763
-0.00236707
0.00747407
-0.00239586
0.00745186
-0.00403524
0.00742847
-0.00402169
0.0074013
-0.00489399
0.0073776
-0.00442691
0.00735698
-0.00441816
0.00734347
-0.00358607
0.00733507
-0.00316945
0.0073322
-0.00242956
0.00733178
-0.00213675
0.00733267
-0.00182174
0.00733224
-0.00183755
0.00732956
-0.00193107
0.00732383
-0.00212134
0.0073148
-0.00240877
0.00730313
-0.0025711
0.00728814
-0.00285725
0.00727166
-0.0028034
0.0072514
-0.00300425
0.00723096
-0.00264207
0.00720481
-0.00266267
0.00717986
-0.00189996
0.00714469
-0.00157241
0.00711301
-0.000294697
0.00706423
0.00087167
0.00702373
0.00285297
0.0069651
0.00602249
0.0104476
0.00749082
-0.025361
0.00742993
-0.0211962
0.00738351
-0.0145281
0.00734135
-0.00576657
0.00730514
0.0032976
0.00727953
0.0102132
0.00727119
0.0137696
0.00727858
0.0137571
0.00729053
0.0116792
0.00729992
0.00953741
0.00730698
0.008084
0.00731395
0.00713746
0.00732111
0.00633415
0.00732859
0.00566244
0.00733585
0.00500606
0.00734295
0.00447273
0.00734926
0.00389411
0.00735511
0.0034736
0.00735977
0.00295693
0.00736385
0.00263113
0.00736642
0.00214818
0.00736848
0.0019133
0.00736867
0.00141461
0.00736867
0.00130144
0.00736649
0.000778641
0.00736463
0.000795373
0.0073602
0.00022444
0.00735686
0.000408148
0.00735038
-0.000265114
0.00734615
0.000160911
0.00733787
-0.000672
0.00733323
3.41674e-05
0.00732306
-0.00103132
0.00731819
4.94703e-05
0.00730587
-0.00130782
0.00730081
0.000227375
0.00728549
-0.00149547
0.00727887
0.000636533
0.0072591
-0.00137996
0.00725246
0.00170375
0.00723615
-0.000187379
0.00724241
0.00414651
0.00724501
0.00224827
0.00727889
0.00724141
0.00730811
0.00391294
0.00736364
0.0076002
0.00738036
-5.42628e-05
0.00740321
0.00112697
0.00739244
-0.00699986
0.00743337
-0.00686188
0.00747838
-0.0150995
0.00755615
-0.038024
0.00767119
-0.0632302
0.00783353
0.014372
0.00783747
0.0477785
0.0077342
0.0225972
0.00757528
-0.000201377
0.00748934
0.00042956
0.00744523
-0.00350762
0.00744778
0.00210253
0.00743994
-0.00124787
0.00744878
0.00270542
0.0074462
-0.000268548
0.00745976
0.00303938
0.00746635
0.000821911
0.00748491
0.0032034
0.00749326
0.000847332
0.00750467
0.00191152
0.00750349
-0.000524602
0.00750212
-0.000203207
0.00749011
-0.00235506
0.00747661
-0.00238237
0.00745451
-0.00401313
0.00743124
-0.00399842
0.0074042
-0.00486695
0.00738061
-0.00440331
0.00736005
-0.0043976
0.00734653
-0.00357254
0.00733806
-0.00316098
0.00733509
-0.00242658
0.00733456
-0.00213622
0.00733534
-0.00182252
0.00733483
-0.00183704
0.00733209
-0.00192834
0.00732636
-0.0021156
0.00731735
-0.00239976
0.00730572
-0.00255947
0.0072908
-0.00284233
0.00727441
-0.002787
0.00725426
-0.0029841
0.00723397
-0.00262177
0.00720799
-0.00263669
0.00718326
-0.00187522
0.00714841
-0.00153756
0.00711711
-0.000263397
0.00706903
0.000919748
0.00702925
0.00289276
0.00697218
0.00607956
0.0104815
0.00749043
-0.0252756
0.00742892
-0.0211347
0.00738203
-0.0144812
0.00733992
-0.00572445
0.00730432
0.0033332
0.00727971
0.0102378
0.0072725
0.0137768
0.00728076
0.0137489
0.00729322
0.0116668
0.0073029
0.00952773
0.00731021
0.00807669
0.00731739
0.00713028
0.00732472
0.00632682
0.00733235
0.00565481
0.00733973
0.00499868
0.00734694
0.00446552
0.00735333
0.00388772
0.00735926
0.00346767
0.00736399
0.00295221
0.00736813
0.00262698
0.00737076
0.00214555
0.00737288
0.00191118
0.00737313
0.00141436
0.00737318
0.00130139
0.00737106
0.000780763
0.00736924
0.000797187
0.00736487
0.000228812
0.00736159
0.000411425
0.00735517
-0.000258685
0.00735099
0.000165083
0.00734277
-0.000663778
0.00733817
3.87709e-05
0.00732806
-0.00102121
0.00732324
5.42949e-05
0.00731098
-0.00129556
0.00730596
0.000232396
0.00729073
-0.00148023
0.00728417
0.00064309
0.00726455
-0.00136034
0.00725807
0.00171023
0.00724196
-0.00017127
0.00724838
0.00414009
0.00725113
0.00224553
0.00728502
0.00720752
0.0073141
0.00388386
0.0073693
0.007545
0.00738576
-7.07225e-05
0.00740849
0.00110423
0.00739777
-0.00698914
0.0074382
-0.00690232
0.00748229
-0.0151436
0.00755676
-0.0380984
0.00766605
-0.0633395
0.00782692
0.0142111
0.00783417
0.0477712
0.00773366
0.0226977
0.00757661
-4.43219e-05
0.00749177
0.000514399
0.00744799
-0.00346384
0.00745051
0.00210001
0.0074426
-0.00123996
0.00745144
0.00269659
0.00744887
-0.000265976
0.00746243
0.00302581
0.00746898
0.000815355
0.00748749
0.0031849
0.00749576
0.000839057
0.00750712
0.00190016
0.00750592
-0.000523406
0.00750457
-0.000201851
0.00749261
-0.00234311
0.00747918
-0.00236894
0.00745718
-0.00399113
0.00743402
-0.00397527
0.00740712
-0.00484005
0.00738363
-0.00437982
0.00736313
-0.0043771
0.00734959
-0.00355901
0.00734106
-0.00315245
0.00733799
-0.00242351
0.00733734
-0.00213558
0.00733802
-0.00182319
0.00733743
-0.00183645
0.00733464
-0.00192555
0.00732889
-0.00210985
0.0073199
-0.00239077
0.00730833
-0.00254789
0.00729347
-0.00282747
0.00727717
-0.0027707
0.00725714
-0.00296407
0.00723698
-0.00260161
0.00721118
-0.0026109
0.00718666
-0.00185071
0.00715214
-0.00150304
0.00712122
-0.000232476
0.00707384
0.000967126
0.00703477
0.00293182
0.00697924
0.00613509
0.010514
0.00749006
-0.0251899
0.00742794
-0.0210726
0.00738059
-0.0144338
0.00733854
-0.0056824
0.00730354
0.0033682
0.00727992
0.0102614
0.00727381
0.0137829
0.00728293
0.0137398
0.00729588
0.0116538
0.00730587
0.00951774
0.00731342
0.00806914
0.00732082
0.00712288
0.00732833
0.0063193
0.00733611
0.00564703
0.00734361
0.00499118
0.00735092
0.00445821
0.0073574
0.00388124
0.00736341
0.00346167
0.0073682
0.00294741
0.00737241
0.00262277
0.0073751
0.00214287
0.00737727
0.00190901
0.00737757
0.00141406
0.00737768
0.00130128
0.00737562
0.00078283
0.00737386
0.000798946
0.00736954
0.000233125
0.00736632
0.000414653
0.00735995
-0.000252318
0.00735583
0.000169206
0.00734766
-0.000655614
0.00734311
4.33244e-05
0.00733306
-0.00101117
0.00732828
5.90748e-05
0.0073161
-0.00128338
0.00731112
0.000237374
0.00729596
-0.00146507
0.00728948
0.000649576
0.00727001
-0.00134087
0.00726368
0.00171656
0.00724778
-0.000155365
0.00725437
0.00413349
0.00725725
0.00224265
0.00729115
0.00717361
0.00732009
0.00385492
0.00737495
0.00749015
0.00739116
-8.6934e-05
0.00741377
0.00108162
0.0074031
-0.00697846
0.00744302
-0.00694224
0.00748617
-0.0151868
0.00755736
-0.0381696
0.00766093
-0.0634431
0.00782031
0.0140517
0.00783084
0.0477607
0.00773311
0.0227955
0.00757794
0.000110842
0.00749421
0.000598131
0.00745076
-0.00342039
0.00745325
0.00209752
0.00744527
-0.00123199
0.00745411
0.00268775
0.00745155
-0.000263421
0.00746511
0.00301225
0.00747163
0.000808834
0.00749007
0.00316646
0.00749828
0.000830851
0.00750959
0.00188885
0.00750838
-0.000522196
0.00750704
-0.000200513
0.00749513
-0.0023312
0.00748177
-0.00235557
0.00745986
-0.00396922
0.00743683
-0.00395224
0.00741005
-0.00481327
0.00738666
-0.00435644
0.00736622
-0.00435665
0.00735267
-0.00354546
0.00734407
-0.00314385
0.00734089
-0.00242033
0.00734014
-0.00213483
0.00734071
-0.00182376
0.00734003
-0.00183577
0.0073372
-0.00192272
0.00733144
-0.00210409
0.00732247
-0.0023818
0.00731094
-0.00253636
0.00729615
-0.00281269
0.00727994
-0.00275448
0.00726002
-0.00294415
0.00723999
-0.00258159
0.00721438
-0.00258528
0.00719007
-0.0018264
0.00715588
-0.00146884
0.00712533
-0.000201931
0.00707865
0.00101381
0.0070403
0.00297017
0.00698629
0.0061891
0.0105451
0.00748969
-0.0251039
0.00742699
-0.0210099
0.00737919
-0.014386
0.0073372
-0.00564041
0.0073028
0.00340261
0.00728014
0.0102841
0.00727512
0.0137879
0.00728509
0.0137298
0.00729855
0.0116404
0.00730883
0.00950746
0.00731663
0.00806134
0.00732424
0.00711527
0.00733193
0.00631161
0.00733986
0.00563911
0.00734748
0.00498356
0.00735489
0.0044508
0.00736146
0.00387467
0.00736754
0.00345559
0.00737241
0.00294255
0.00737668
0.0026185
0.00737943
0.00214011
0.00738165
0.00190678
0.00738202
0.00141369
0.00738218
0.00130112
0.00738017
0.00078484
0.00737846
0.000800652
0.00737421
0.00023738
0.00737104
0.000417825
0.00736473
-0.00024601
0.00736066
0.000173278
0.00735255
-0.000647512
0.00734805
4.78304e-05
0.00733806
-0.00100118
0.00733333
6.38093e-05
0.00732121
-0.00127126
0.00731627
0.000242308
0.0073012
-0.00144999
0.00729478
0.000655987
0.00727547
-0.00132156
0.0072693
0.00172273
0.0072536
-0.000139665
0.00726035
0.00412674
0.00726336
0.00223964
0.00729727
0.00713971
0.00732607
0.00382611
0.00738059
0.00743563
0.00739657
-0.000102905
0.00741907
0.00105912
0.00740842
-0.00696781
0.00744782
-0.00698165
0.00749002
-0.015229
0.00755794
-0.0382375
0.00765582
-0.0635409
0.0078137
0.0138938
0.00782748
0.0477469
0.00773253
0.0228904
0.00757928
0.000264087
0.00749666
0.000680753
0.00745353
-0.00337726
0.00745598
0.00209508
0.00744795
-0.00122396
0.00745679
0.00267892
0.00745425
-0.000260884
0.00746781
0.0029987
0.00747429
0.00080235
0.00749267
0.00314808
0.00750081
0.000822711
0.00751206
0.0018776
0.00751084
-0.000520974
0.00750952
-0.000199194
0.00749766
-0.00231934
0.00748436
-0.00234228
0.00746256
-0.00394741
0.00743964
-0.00392933
0.00741299
-0.00478661
0.00738971
-0.00433315
0.00736931
-0.00433626
0.00735575
-0.0035319
0.00734708
-0.00313518
0.0073438
-0.00241706
0.00734294
-0.00213396
0.0073434
-0.00182422
0.00734264
-0.00183502
0.00733976
-0.00191984
0.007334
-0.00209833
0.00732505
-0.00237285
0.00731356
-0.00252487
0.00729884
-0.00279796
0.00728271
-0.00273836
0.0072629
-0.00292434
0.00724302
-0.0025617
0.00721758
-0.00255984
0.00719349
-0.00180232
0.00715962
-0.00143497
0.00712946
-0.000171766
0.00708347
0.00105979
0.00704584
0.0030078
0.00699332
0.00624162
0.0105749
0.00748934
-0.0250175
0.00742605
-0.0209466
0.00737783
-0.0143378
0.00733591
-0.00559849
0.00730209
0.00343643
0.00728039
0.0103057
0.00727644
0.0137919
0.00728724
0.013719
0.00730119
0.0116264
0.00731178
0.00949687
0.00731983
0.00805329
0.00732765
0.00710745
0.00733552
0.00630373
0.0073436
0.00563104
0.00735134
0.00497582
0.00735886
0.00444328
0.00736551
0.00386801
0.00737167
0.00344943
0.0073766
0.00293762
0.00738094
0.00261417
0.00738375
0.00213731
0.00738603
0.0019045
0.00738645
0.00141328
0.00738667
0.0013009
0.00738471
0.000786794
0.00738306
0.000802303
0.00737886
0.000241578
0.00737575
0.000420942
0.0073695
-0.000239764
0.00736548
0.000177296
0.00735744
-0.000639468
0.00735298
5.22898e-05
0.00734306
-0.000991261
0.00733837
6.84979e-05
0.00732632
-0.00125921
0.00732143
0.000247197
0.00730643
-0.001435
0.00730009
0.000662323
0.00728093
-0.00130239
0.00727491
0.00172875
0.00725942
-0.000124169
0.00726634
0.00411982
0.00726948
0.0022365
0.00730338
0.0071058
0.00733205
0.00379745
0.00738624
0.00738143
0.00740198
-0.000118643
0.00742436
0.00103674
0.00741374
-0.00695719
0.00745261
-0.00702052
0.00749385
-0.0152702
0.00755853
-0.0383022
0.00765074
-0.0636332
0.00780708
0.0137375
0.00782408
0.0477299
0.00773193
0.0229826
0.00758062
0.000415389
0.00749912
0.000762254
0.0074563
-0.00333445
0.00745871
0.00209267
0.00745064
-0.00121588
0.00745947
0.00267008
0.00745696
-0.000258368
0.00747051
0.00298514
0.00747696
0.000795905
0.00749527
0.00312977
0.00750334
0.000814638
0.00751455
0.0018664
0.00751331
-0.000519741
0.00751202
-0.000197895
0.0075002
-0.00230753
0.00748698
-0.00232905
0.00746526
-0.0039257
0.00744247
-0.00390653
0.00741594
-0.00476008
0.00739276
-0.00430997
0.00737241
-0.00431591
0.00735883
-0.00351832
0.00735009
-0.00312644
0.00734672
-0.00241368
0.00734574
-0.00213299
0.0073461
-0.00182458
0.00734527
-0.00183418
0.00734234
-0.00191691
0.00733656
-0.00209255
0.00732763
-0.00236391
0.00731619
-0.00251343
0.00730153
-0.00278331
0.0072855
-0.00272233
0.00726579
-0.00290464
0.00724605
-0.00254196
0.00722079
-0.00253458
0.00719691
-0.00177845
0.00716338
-0.00140144
0.00713359
-0.000141976
0.00708829
0.00110509
0.00705137
0.00304472
0.00700033
0.00629265
0.0106034
0.00748899
-0.0249307
0.00742515
-0.0208828
0.0073765
-0.0142892
0.00733465
-0.00555664
0.00730141
0.00346967
0.00728066
0.0103265
0.00727776
0.0137948
0.00728939
0.0137074
0.00730383
0.011612
0.00731472
0.00948598
0.00732302
0.00804499
0.00733105
0.00709942
0.00733911
0.00629568
0.00734733
0.00562282
0.00735519
0.00496795
0.00736281
0.00443566
0.00736956
0.00386127
0.00737579
0.0034432
0.00738079
0.00293262
0.00738519
0.00260977
0.00738806
0.00213444
0.0073904
0.00190215
0.00739088
0.0014128
0.00739115
0.00130063
0.00738925
0.000788691
0.00738766
0.000803901
0.00738352
0.000245715
0.00738045
0.000424006
0.00737426
-0.000233574
0.0073703
0.00018126
0.00736232
-0.000631485
0.00735791
5.67013e-05
0.00734805
-0.0009814
0.0073434
7.31399e-05
0.00733142
-0.00124722
0.00732658
0.00025204
0.00731166
-0.00142008
0.0073054
0.000668583
0.00728639
-0.00128338
0.00728053
0.0017346
0.00726524
-0.000108875
0.00727232
0.00411274
0.00727559
0.00223323
0.00730949
0.00707189
0.00733801
0.00376894
0.00739187
0.00732757
0.00740739
-0.000134154
0.00742966
0.00101447
0.00741905
-0.00694659
0.00745738
-0.00705885
0.00749766
-0.0153105
0.00755911
-0.0383637
0.00764568
-0.0637197
0.00780047
0.0135827
0.00782066
0.0477097
0.00773129
0.023072
0.00758196
0.000564722
0.00750158
0.000842629
0.00745907
-0.00329194
0.00746144
0.0020903
0.00745333
-0.00120777
0.00746217
0.00266124
0.00745968
-0.000255873
0.00747322
0.0029716
0.00747963
0.000789498
0.00749788
0.00311152
0.00750589
0.00080663
0.00751704
0.00185524
0.0075158
-0.000518501
0.00751452
-0.000196618
0.00750276
-0.00229576
0.0074896
-0.00231589
0.00746798
-0.00390408
0.00744531
-0.00388386
0.0074189
-0.00473368
0.00739581
-0.00428688
0.00737551
-0.00429561
0.00736192
-0.00350472
0.00735311
-0.00311763
0.00734964
-0.0024102
0.00734855
-0.00213191
0.00734881
-0.00182483
0.00734789
-0.00183327
0.00734492
-0.00191394
0.00733913
-0.00208676
0.00733021
-0.002355
0.00731882
-0.00250204
0.00730423
-0.00276871
0.00728828
-0.00270638
0.00726869
-0.00288505
0.00724908
-0.00252235
0.00722399
-0.0025095
0.00720034
-0.00175479
0.00716713
-0.00136823
0.00713772
-0.000112566
0.00709312
0.00114969
0.0070569
0.00308094
0.00700732
0.00634224
0.0106306
0.00748865
-0.0248436
0.00742427
-0.0208184
0.00737522
-0.0142401
0.00733344
-0.00551486
0.00730077
0.00350234
0.00728095
0.0103463
0.00727909
0.0137966
0.00729153
0.0136949
0.00730646
0.011597
0.00731766
0.00947478
0.0073262
0.00803645
0.00733445
0.00709117
0.00734268
0.00628745
0.00735105
0.00561445
0.00735904
0.00495996
0.00736676
0.00442794
0.00737359
0.00385443
0.0073799
0.00343689
0.00738497
0.00292754
0.00738943
0.00260531
0.00739236
0.00213151
0.00739476
0.00189975
0.0073953
0.00141227
0.00739562
0.0013003
0.00739378
0.000790532
0.00739224
0.000805443
0.00738816
0.000249795
0.00738515
0.000427017
0.00737902
-0.000227448
0.00737511
0.000185172
0.00736719
-0.000623563
0.00736283
6.10647e-05
0.00735303
-0.000971601
0.00734843
7.77348e-05
0.00733652
-0.00123531
0.00733173
0.000256836
0.00731689
-0.00140525
0.00731071
0.000674764
0.00729185
-0.00126452
0.00728615
0.0017403
0.00727106
-9.37853e-05
0.0072783
0.0041055
0.00728169
0.00222985
0.00731559
0.00703799
0.00734397
0.00374056
0.00739751
0.00727403
0.0074128
-0.000149445
0.00743495
0.000992313
0.00742435
-0.00693599
0.00746214
-0.00709664
0.00750144
-0.0153498
0.00755968
-0.0384219
0.00764065
-0.0638007
0.00779387
0.0134295
0.0078172
0.0476864
0.00773062
0.0231585
0.00758328
0.000712064
0.00750404
0.000921866
0.00746184
-0.00324973
0.00746417
0.00208797
0.00745602
-0.00119962
0.00746488
0.00265238
0.0074624
-0.0002534
0.00747594
0.00295806
0.00748231
0.00078313
0.00750049
0.00309334
0.00750844
0.000798685
0.00751954
0.00184414
0.00751829
-0.000517253
0.00751704
-0.000195362
0.00750532
-0.00228405
0.00749223
-0.0023028
0.00747071
-0.00388257
0.00744815
-0.0038613
0.00742187
-0.00470739
0.00739887
-0.00426388
0.00737862
-0.00427536
0.00736501
-0.00349111
0.00735614
-0.00310875
0.00735256
-0.00240663
0.00735137
-0.00213071
0.00735152
-0.00182498
0.00735053
-0.00183228
0.0073475
-0.00191091
0.0073417
-0.00208096
0.00733281
-0.0023461
0.00732146
-0.00249069
0.00730693
-0.00275418
0.00729107
-0.00269053
0.00727159
-0.00286557
0.00725212
-0.00250288
0.00722721
-0.00248459
0.00720377
-0.00173135
0.00717089
-0.00133535
0.00714185
-8.35287e-05
0.00709794
0.0011936
0.00706244
0.00311644
0.00701429
0.00639038
0.0106565
0.00748833
-0.0247562
0.00742341
-0.0207535
0.00737396
-0.0141907
0.00733226
-0.00547316
0.00730016
0.00353445
0.00728126
0.0103652
0.00728042
0.0137975
0.00729366
0.0136817
0.00730907
0.0115816
0.00732058
0.00946327
0.00732937
0.00802766
0.00733783