/*--------------------------------*- C++ -*----------------------------------*\
| =========                 |                                                 |
| \\      /  F ield         | OpenFOAM: The Open Source CFD Toolbox           |
|  \\    /   O peration     | Version:  2412                                  |
|   \\  /    A nd           | Website:  www.openfoam.com                      |
|    \\/     M anipulation  |                                                 |
\*---------------------------------------------------------------------------*/
FoamFile
{
    version     2.0;
    format      ascii;
    arch        "LSB;label=32;scalar=64";
    class       volVectorField;
    location    "0.3";
    object      U;
}
// * * * * * * * * * * * * * * * * * * * * * * * * * * * * * * * * * * * * * //

dimensions      [0 1 -1 0 0 0 0];

internalField   nonuniform List<vector> 
13079
(
(100.05 1.43279 0)
(100.608 4.49715 -8.52972e-17)
(101.456 9.21791 -8.33273e-21)
(102.425 15.2994 0)
(103.36 21.583 0)
(104.436 26.5078 0)
(105.682 29.2751 0)
(107.313 29.7512 0)
(109.202 28.8611 -1.0329e-16)
(111.181 27.9054 9.07792e-17)
(113.194 27.4186 0)
(115.261 27.288 0)
(117.442 27.2821 0)
(119.689 27.3793 7.27636e-17)
(122.076 27.5128 0)
(124.509 27.7451 0)
(127.109 27.988 -6.79783e-17)
(129.73 28.3373 -6.63419e-17)
(132.56 28.6673 -3.4618e-21)
(135.377 29.1267 -6.30837e-17)
(138.464 29.5316 0)
(141.49 30.1068 -5.97188e-17)
(144.877 30.5805 5.81131e-17)
(148.131 31.2867 0)
(151.875 31.8256 0)
(155.381 32.6885 0)
(159.566 33.2898 5.10768e-17)
(163.349 34.3449 -4.89828e-17)
(168.088 35.0056 -3.19537e-21)
(172.175 36.2966 0)
(177.62 37.0124 0)
(182.037 38.5912 0)
(188.388 39.3567 0)
(193.147 41.2806 0)
(200.66 42.1029 3.61594e-17)
(205.76 44.4385 -3.31217e-17)
(214.772 45.3465 -3.23499e-17)
(220.187 48.1639 -2.88013e-17)
(231.062 49.3058 2.84004e-17)
(236.776 52.8707 -2.41277e-17)
(250.174 54.6988 0)
(256.703 59.3534 -1.93375e-17)
(273.916 62.0848 -2.06453e-17)
(282.289 67.6903 -2.94241e-17)
(305.082 70.7351 3.52855e-17)
(316.297 76.1024 0)
(345.926 77.6784 -1.50356e-17)
(358.173 81.5392 0)
(394.156 84.3306 0)
(409.192 88.4394 0)
(459.641 94.7485 -6.24477e-18)
(486.429 85.9993 0)
(557.626 93.8942 0)
(621.456 1.01855 0)
(575.623 -47.5674 -2.31528e-20)
(549.566 -64.4995 0)
(496.022 -71.6702 6.84648e-21)
(471.854 -67.4418 -9.86716e-18)
(436.147 -64.7025 8.23297e-21)
(422.637 -58.8842 -2.77525e-18)
(397.252 -57.4813 -4.88228e-18)
(385.845 -53.2123 0)
(365.429 -52.2947 0)
(355.222 -48.6067 -3.05335e-21)
(338.877 -47.7556 9.89097e-18)
(329.87 -44.8594 9.13229e-18)
(316.555 -44.5463 -1.22538e-17)
(308.122 -42.6353 -1.20939e-17)
(296.621 -42.6322 1.44286e-17)
(288.387 -41.2618 -1.46237e-17)
(278.169 -41.2578 1.64019e-17)
(270.193 -40.1479 2.7441e-21)
(260.99 -39.9414 0)
(253.339 -38.8465 0)
(245.029 -38.2463 2.02673e-17)
(237.957 -36.9185 2.11133e-17)
(230.718 -35.8673 -2.24281e-17)
(100.048 1.41624 0)
(100.597 4.461 8.52654e-17)
(101.434 9.16997 -1.66632e-16)
(102.397 15.249 0)
(103.339 21.5313 0)
(104.427 26.4521 0)
(105.692 29.2109 0)
(107.34 29.6774 0)
(109.241 28.783 -1.03113e-16)
(111.226 27.8274 0)
(113.243 27.341 0)
(115.315 27.2093 0)
(117.5 27.2021 0)
(119.751 27.2976 0)
(122.141 27.4296 0)
(124.577 27.6604 0)
(127.18 27.9021 3.34428e-21)
(129.804 28.2498 6.63423e-17)
(132.637 28.5786 -6.47796e-17)
(135.456 29.0364 0)
(138.546 29.4402 -6.1486e-17)
(141.575 30.0135 5.9709e-17)
(144.965 30.4861 0)
(148.222 31.1901 -5.62364e-17)
(151.97 31.7279 0)
(155.479 32.588 0)
(159.668 33.1882 -3.37464e-21)
(163.454 34.2398 4.89758e-17)
(168.197 34.8994 -4.74232e-17)
(172.289 36.1859 0)
(177.738 36.9008 4.37133e-17)
(182.16 38.474 0)
(188.516 39.2387 0)
(193.281 41.1558 0)
(200.799 41.9776 -2.0951e-21)
(205.906 44.3051 3.31026e-17)
(214.922 45.2133 0)
(220.347 48.0219 0)
(231.227 49.1646 2.83702e-17)
(236.957 52.7188 -2.40893e-17)
(250.364 54.5439 2.43528e-17)
(256.915 59.1819 1.92966e-17)
(274.139 61.903 2.08335e-22)
(282.535 67.4843 4.10196e-21)
(305.334 70.513 -1.75852e-17)
(316.562 75.8541 1.03598e-17)
(346.174 77.4267 0)
(358.434 81.2758 5.08577e-18)
(394.42 84.0596 0)
(409.503 88.1278 -1.08742e-18)
(459.903 94.3765 6.2375e-18)
(486.683 85.5682 7.89905e-18)
(557.479 93.24 -1.84376e-18)
(620.811 0.951897 0)
(575.286 -47.2117 -1.4977e-20)
(549.46 -64.1071 -1.56229e-17)
(496.047 -71.2944 6.54598e-21)
(471.96 -67.1408 0)
(436.302 -64.458 -5.96746e-18)
(422.792 -58.6792 0)
(397.395 -57.282 0)
(385.975 -53.0278 -1.80927e-18)
(365.553 -52.1128 0)
(355.342 -48.4403 -5.66565e-18)
(338.993 -47.593 -9.7881e-18)
(329.981 -44.709 0)
(316.659 -44.3955 1.04084e-22)
(308.219 -42.4901 1.1973e-17)
(296.712 -42.484 1.42982e-17)
(288.474 -41.1172 -1.45007e-17)
(278.254 -41.1114 -3.25799e-17)
(270.277 -40.0046 1.6713e-17)
(261.074 -39.7972 1.81742e-17)
(253.424 -38.7059 -1.88157e-17)
(245.117 -38.108 -2.1331e-22)
(238.047 -36.7867 -2.10438e-17)
(230.81 -35.7418 2.23597e-17)
(100.047 1.4 0)
(100.586 4.42539 -8.52529e-17)
(101.413 9.12246 8.32852e-17)
(102.371 15.1986 0)
(103.317 21.4792 0)
(104.418 26.3957 0)
(105.702 29.1459 0)
(107.368 29.6028 0)
(109.28 28.7045 1.02947e-16)
(111.271 27.7491 9.061e-17)
(113.293 27.2631 0)
(115.368 27.1304 0)
(117.558 27.1218 -7.47039e-17)
(119.812 27.2156 0)
(122.206 27.3463 -7.11295e-17)
(124.644 27.5755 6.95147e-17)
(127.251 27.8159 6.79772e-17)
(129.877 28.1621 0)
(132.713 28.4898 -6.4773e-17)
(135.535 28.9459 0)
(138.628 29.3486 6.14851e-17)
(141.66 29.9201 -1.19411e-16)
(145.053 30.3916 0)
(148.313 31.0933 5.62337e-17)
(152.065 31.63 -5.46213e-17)
(155.577 32.4874 5.26487e-17)
(159.77 33.0864 -5.10623e-17)
(163.559 34.1346 0)
(168.307 34.793 0)
(172.402 36.0751 0)
(177.857 36.7889 -4.37039e-17)
(182.283 38.3566 0)
(188.644 39.1204 -3.99407e-17)
(193.414 41.0308 0)
(200.937 41.8522 -3.61247e-17)
(206.052 44.1715 -3.30756e-17)
(215.073 45.0799 3.23027e-17)
(220.508 47.8798 2.87395e-17)
(231.394 49.0233 -2.83451e-17)
(237.139 52.5667 2.40635e-17)
(250.556 54.3888 -2.43229e-17)
(257.128 59.0101 -1.92673e-17)
(274.362 61.7208 2.24989e-22)
(282.781 67.2779 2.92641e-17)
(305.586 70.2904 1.75315e-17)
(316.826 75.6055 -1.03206e-17)
(346.422 77.1749 0)
(358.696 81.0123 -1.01295e-17)
(394.686 83.7885 1.05718e-17)
(409.814 87.816 2.17812e-18)
(460.164 94.0046 0)
(486.935 85.1385 -7.90104e-18)
(557.33 92.5896 1.85043e-18)
(620.164 0.886086 1.09278e-18)
(574.946 -46.858 3.42325e-20)
(549.354 -63.7166 3.12295e-17)
(496.079 -70.9205 6.29929e-21)
(472.072 -66.8413 -9.59814e-18)
(436.46 -64.2141 2.94973e-18)
(422.947 -58.4741 -2.70875e-18)
(397.538 -57.0825 4.79857e-18)
(386.105 -52.8433 1.79365e-18)
(365.678 -51.931 -7.29583e-18)
(355.464 -48.2739 0)
(339.11 -47.4305 0)
(330.093 -44.5585 8.93969e-18)
(316.763 -44.2447 1.20173e-17)
(308.317 -42.3447 0)
(296.804 -42.3358 -1.41885e-17)
(288.563 -40.9727 3.2924e-21)
(278.34 -40.965 3.23879e-17)
(270.363 -39.8614 0)
(261.16 -39.6533 -1.80992e-17)
(253.512 -38.5656 1.87491e-17)
(245.206 -37.9699 -2.01311e-17)
(238.139 -36.6551 0)
(230.902 -35.6164 0)
(100.046 1.38407 0)
(100.575 4.39035 0)
(101.392 9.07557 0)
(102.344 15.1485 0)
(103.297 21.427 0)
(104.41 26.3388 0)
(105.712 29.0801 0)
(107.395 29.5276 0)
(109.319 28.6255 0)
(111.315 27.6704 -9.05329e-17)
(113.342 27.1849 -8.21067e-17)
(115.422 27.0511 0)
(117.616 27.0412 7.47057e-17)
(119.873 27.1334 7.27574e-17)
(122.271 27.2627 3.18511e-21)
(124.712 27.4904 -3.37211e-21)
(127.322 27.7295 0)
(129.951 28.0742 6.63335e-17)
(132.789 28.4007 1.29544e-16)
(135.614 28.8552 6.30678e-17)
(138.71 29.2568 0)
(141.745 29.8264 1.19401e-16)
(145.141 30.2968 5.80931e-17)
(148.404 30.9963 0)
(152.159 31.5318 5.46185e-17)
(155.674 32.3865 -5.26451e-17)
(159.871 32.9844 5.10513e-17)
(163.664 34.0291 0)
(168.417 34.6864 0)
(172.516 35.9641 -4.51566e-17)
(177.975 36.6768 0)
(182.406 38.2389 0)
(188.772 39.002 3.99298e-17)
(193.548 40.9056 0)
(201.076 41.7265 -3.6107e-17)
(206.198 44.0378 3.30605e-17)
(215.224 44.9463 -3.22849e-17)
(220.669 47.7374 -5.74347e-17)
(231.561 48.8817 -2.83204e-17)
(237.322 52.4144 0)
(250.748 54.2333 2.42957e-17)
(257.341 58.8379 1.92335e-17)
(274.586 61.5383 2.05372e-17)
(283.027 67.0711 -2.91969e-17)
(305.837 70.0675 -1.92416e-21)
(317.089 75.3566 0)
(346.671 76.9229 0)
(358.96 80.7488 5.04588e-18)
(394.953 83.5172 -2.10971e-17)
(410.126 87.5042 -1.09093e-18)
(460.425 93.6326 0)
(487.185 84.7102 0)
(557.181 91.9434 -1.87175e-18)
(619.517 0.821063 -1.09843e-18)
(574.603 -46.5065 0)
(549.248 -63.328 -1.56142e-17)
(496.114 -70.5482 -2.24933e-18)
(472.189 -66.5429 2.84079e-21)
(436.62 -63.9705 0)
(423.103 -58.2688 2.68334e-18)
(397.682 -56.8829 -4.76192e-18)
(386.237 -52.6588 -1.77387e-18)
(365.804 -51.7492 -1.84343e-22)
(355.586 -48.1076 5.56099e-18)
(339.228 -47.2681 0)
(330.205 -44.4079 -8.8666e-18)
(316.868 -44.0937 0)
(308.415 -42.1994 0)
(296.896 -42.1876 0)
(288.652 -40.8282 2.86238e-17)
(278.428 -40.8188 -1.61127e-17)
(270.45 -39.7184 0)
(261.247 -39.5096 -1.80333e-17)
(253.601 -38.4254 1.86885e-17)
(245.296 -37.832 2.00771e-17)
(238.232 -36.5236 2.09317e-17)
(230.996 -35.491 -2.22527e-17)
(100.045 1.36843 0)
(100.565 4.35584 0)
(101.372 9.02912 0)
(102.319 15.0986 0)
(103.277 21.3745 0)
(104.402 26.2813 1.05658e-16)
(105.722 29.0136 0)
(107.423 29.4517 0)
(109.357 28.546 0)
(111.359 27.5915 -9.04477e-17)
(113.391 27.1064 1.64162e-16)
(115.475 26.9717 7.73894e-17)
(117.673 26.9604 -7.47014e-17)
(119.934 27.051 -7.27605e-17)
(122.336 27.179 7.11316e-17)
(124.78 27.4051 -6.95157e-17)
(127.393 27.643 0)
(130.024 27.9861 -3.50378e-21)
(132.866 28.3115 -6.47712e-17)
(135.693 28.7643 -3.672e-21)
(138.792 29.1648 0)
(141.83 29.7326 -5.96982e-17)
(145.229 30.2018 -3.42845e-21)
(148.495 30.8992 0)
(152.253 31.4335 0)
(155.772 32.2854 5.26338e-17)
(159.973 32.8822 -5.10477e-17)
(163.77 33.9234 0)
(168.526 34.5796 0)
(172.63 35.8529 4.51503e-17)
(178.093 36.5645 -4.368e-17)
(182.529 38.1211 -4.12436e-17)
(188.9 38.8833 -3.99153e-17)
(193.682 40.7801 -3.72073e-17)
(201.216 41.6007 2.05715e-21)
(206.344 43.9038 3.30372e-17)
(215.376 44.8124 0)
(220.83 47.5947 2.86973e-17)
(231.729 48.7398 2.83004e-17)
(237.505 52.2617 0)
(250.94 54.0775 -3.14211e-22)
(257.555 58.6654 -1.92107e-17)
(274.811 61.3554 2.05092e-17)
(283.274 66.8639 1.45706e-17)
(306.089 69.8442 -1.86682e-21)
(317.352 75.1073 -1.02358e-17)
(346.92 76.6707 0)
(359.226 80.4851 5.01504e-18)
(395.221 83.2455 1.05281e-17)
(410.438 87.1921 0)
(460.685 93.2606 0)
(487.432 84.2832 0)
(557.032 91.3012 1.87852e-18)
(618.869 0.75687 -1.09694e-18)
(574.256 -46.1571 0)
(549.142 -62.9411 0)
(496.152 -70.1774 0)
(472.309 -66.2458 1.87756e-17)
(436.781 -63.7272 2.90812e-18)
(423.258 -58.0634 0)
(397.826 -56.6831 0)
(386.37 -52.4743 3.52139e-18)
(365.932 -51.5675 7.1972e-18)
(355.71 -47.9414 -5.52323e-18)
(339.347 -47.1055 0)
(330.318 -44.2573 0)
(316.974 -43.9427 0)
(308.514 -42.054 0)
(296.99 -42.0395 0)
(288.743 -40.6838 -3.43081e-21)
(278.516 -40.6727 1.60412e-17)
(270.538 -39.5755 0)
(261.335 -39.3659 1.1972e-21)
(253.691 -38.2853 -2.03539e-21)
(245.388 -37.6941 -3.5786e-22)
(238.326 -36.3923 -2.08882e-17)
(231.09 -35.3657 2.22093e-17)
(224.937 -33.9379 0)
(218.836 -32.8086 2.43888e-17)
(213.573 -31.5805 -1.82769e-22)
(208.35 -30.6523 -3.54514e-22)
(203.705 -29.7926 5.48547e-17)
(199.01 -29.1458 5.69009e-17)
(194.705 -28.6058 2.9411e-17)
(190.282 -28.1137 3.03908e-17)
(186.191 -27.732 6.27541e-17)
(181.948 -27.2367 3.23092e-17)
(178.079 -26.8945 -3.33186e-17)
(173.981 -26.2866 -1.76363e-21)
(170.375 -25.9171 3.52213e-17)
(166.366 -25.1187 -7.19671e-17)
(163.079 -24.6795 -3.70156e-17)
(159.028 -23.612 9.37762e-22)
(156.129 -23.008 -3.86324e-17)
(151.78 -21.5517 -7.77122e-17)
(149.41 -20.494 3.99929e-17)
(144.384 -18.4848 3.94952e-17)
(142.827 -16.2298 -4.11033e-17)
(136.923 -12.4807 -4.11727e-17)
(100.044 1.35309 9.02185e-17)
(100.555 4.32184 0)
(101.353 8.98315 8.31722e-17)
(102.294 15.0488 0)
(103.258 21.3216 -9.51325e-17)
(104.395 26.2232 -1.05528e-16)
(105.733 28.9463 0)
(107.45 29.3751 0)
(109.395 28.4661 0)
(111.403 27.5123 9.03693e-17)
(113.439 27.0277 -1.64108e-16)
(115.528 26.892 -7.73859e-17)
(117.731 26.8793 3.15807e-21)
(119.995 26.9684 -7.27572e-17)
(122.4 27.095 0)
(124.847 27.3196 0)
(127.463 27.5563 0)
(130.097 27.8978 -3.49155e-21)
(132.942 28.222 0)
(135.772 28.6733 -6.30654e-17)
(138.874 29.0726 6.14714e-17)
(141.914 29.6385 5.96904e-17)
(145.317 30.1066 -3.41584e-21)
(148.585 30.8018 5.62127e-17)
(152.348 31.335 0)
(155.869 32.1842 -1.05259e-16)
(160.074 32.7797 -5.10382e-17)
(163.875 33.8175 0)
(168.636 34.4725 0)
(172.743 35.7414 -4.51361e-17)
(178.212 36.4519 2.80271e-21)
(182.652 38.003 4.12363e-17)
(189.029 38.7644 3.99069e-17)
(193.815 40.6544 7.43908e-17)
(201.355 41.4745 3.60825e-17)
(206.491 43.7695 -3.30253e-17)
(215.528 44.6783 0)
(220.992 47.4518 -2.86716e-17)
(231.897 48.5976 -2.82805e-17)
(237.688 52.1087 0)
(251.133 53.9214 -2.42511e-17)
(257.769 58.4925 0)
(275.036 61.172 -2.04851e-17)
(283.52 66.6563 0)
(306.34 69.6206 -3.48227e-17)
(317.615 74.8578 2.04121e-17)
(347.169 76.4184 0)
(359.492 80.2213 -5.00435e-18)
(395.491 82.9736 1.05009e-17)
(410.75 86.8798 0)
(460.944 92.8886 0)
(487.678 83.8576 0)
(556.882 90.6632 1.89982e-18)
(618.221 0.693507 1.10292e-18)
(573.907 -45.8098 0)
(549.034 -62.5559 0)
(496.191 -69.8079 0)
(472.432 -65.9496 -9.2983e-18)
(436.943 -63.4842 -2.88209e-18)
(423.414 -57.8578 2.64184e-18)
(397.97 -56.4831 0)
(386.503 -52.2897 -3.49487e-18)
(366.061 -51.3858 0)
(355.835 -47.7752 0)
(339.467 -46.943 -9.50338e-18)
(330.431 -44.1066 0)
(317.081 -43.7917 -1.17733e-17)
(308.614 -41.9085 0)
(297.085 -41.8913 1.39421e-17)
(288.834 -40.5395 -3.49134e-21)
(278.606 -40.5266 -1.59829e-17)
(270.627 -39.4327 0)
(261.424 -39.2224 1.79324e-17)
(253.781 -38.1454 -1.85977e-17)
(245.48 -37.5564 -3.95857e-22)
(238.421 -36.261 0)
(231.185 -35.2404 -2.21731e-17)
(225.031 -33.8205 0)
(218.926 -32.6973 2.43517e-17)
(213.658 -31.475 -2.53217e-17)
(208.43 -30.5506 -2.64418e-17)
(203.78 -29.6935 -5.47788e-17)
(199.081 -29.0478 -2.84142e-17)
(194.772 -28.5081 -2.93738e-17)
(190.346 -28.016 0)
(186.255 -27.6343 -3.1346e-17)
(182.011 -27.1394 0)
(178.143 -26.7972 3.32927e-17)
(174.045 -26.1905 -3.4166e-17)
(170.441 -25.8208 3.51986e-17)
(166.432 -25.0244 3.59634e-17)
(163.148 -24.5838 3.69991e-17)
(159.099 -23.5195 3.75686e-17)
(156.206 -22.911 3.86228e-17)
(151.863 -21.4601 3.88484e-17)
(149.5 -20.3934 -3.99907e-17)
(144.492 -18.3947 -3.94947e-17)
(142.944 -16.1291 4.11063e-17)
(137.092 -12.4058 4.11655e-17)
(100.043 1.33802 -9.02282e-17)
(100.545 4.28835 -8.51546e-17)
(101.333 8.93763 -8.3146e-17)
(102.27 14.9991 0)
(103.239 21.2685 9.50508e-17)
(104.388 26.1645 0)
(105.744 28.8783 -1.13101e-16)
(107.477 29.2979 0)
(109.434 28.3858 0)
(111.447 27.4327 0)
(113.488 26.9488 8.20279e-17)
(115.581 26.8121 -7.7376e-17)
(117.788 26.7981 3.14737e-21)
(120.056 26.8856 7.27607e-17)
(122.464 27.0108 0)
(124.915 27.2339 0)
(127.533 27.4693 0)
(130.17 27.8094 -1.3266e-16)
(133.018 28.1324 6.47641e-17)
(135.851 28.582 0)
(138.956 28.9802 -1.22941e-16)
(141.998 29.5443 -5.96907e-17)
(145.404 30.0113 -5.80845e-17)
(148.676 30.7042 -5.6212e-17)
(152.442 31.2363 0)
(155.967 32.0827 5.26256e-17)
(160.176 32.6771 3.27015e-21)
(163.979 33.7114 0)
(168.745 34.3652 4.73789e-17)
(172.857 35.6298 9.02587e-17)
(178.33 36.3391 4.3666e-17)
(182.775 37.8847 0)
(189.157 38.6452 -3.98948e-17)
(193.949 40.5285 -7.43648e-17)
(201.494 41.3481 0)
(206.637 43.635 0)
(215.68 44.5439 3.22358e-17)
(221.153 47.3086 5.73102e-17)
(232.065 48.4551 2.82645e-17)
(237.872 51.9554 2.39625e-17)
(251.327 53.7649 2.42322e-17)
(257.983 58.3191 -1.91614e-17)
(275.261 60.9883 0)
(283.767 66.4482 0)
(306.592 69.3966 1.73812e-17)
(317.877 74.6081 -1.01796e-17)
(347.418 76.1659 0)
(359.759 79.9574 4.97704e-18)
(395.76 82.7012 -1.0488e-17)
(411.062 86.5672 0)
(461.203 92.5166 0)
(487.922 83.4333 7.90025e-18)
(556.732 90.0294 -1.90657e-18)
(617.574 0.630977 -1.10178e-18)
(573.555 -45.4647 0)
(548.925 -62.1723 1.56528e-17)
(496.233 -69.4398 2.24317e-18)
(472.558 -65.6544 0)
(437.107 -63.2414 0)
(423.57 -57.6521 -5.25081e-18)
(398.115 -56.2829 -4.68937e-18)
(386.638 -52.105 3.48703e-21)
(366.192 -51.2042 0)
(355.96 -47.6089 5.45191e-18)
(339.588 -46.7804 4.91155e-24)
(330.545 -43.9559 0)
(317.188 -43.6405 1.17145e-17)
(308.715 -41.763 0)
(297.18 -41.7431 -1.41688e-21)
(288.927 -40.3951 -1.41177e-17)
(278.696 -40.3805 -1.59302e-17)
(270.717 -39.2899 1.63885e-17)
(261.514 -39.0789 -1.78911e-17)
(253.873 -38.0055 1.8559e-17)
(245.573 -37.4188 -1.99593e-17)
(238.516 -36.1297 -2.0817e-17)
(231.28 -35.1151 2.2141e-17)
(225.125 -33.7031 0)
(219.016 -32.586 -4.86379e-17)
(213.744 -31.3695 -2.52882e-17)
(208.51 -30.4487 0)
(203.856 -29.5944 1.05144e-21)
(199.151 -28.9497 2.8381e-17)
(194.84 -28.4104 2.93448e-17)
(190.411 -27.9183 3.03256e-17)
(186.319 -27.5366 -3.13169e-17)
(182.074 -27.0422 3.22513e-17)
(178.207 -26.7 0)
(174.108 -26.0945 0)
(170.507 -25.7245 -3.51807e-17)
(166.499 -24.9302 3.59447e-17)
(163.218 -24.4882 -3.69867e-17)
(159.171 -23.427 0)
(156.283 -22.8142 -3.86192e-17)
(151.946 -21.3687 -3.88429e-17)
(149.591 -20.2931 0)
(144.601 -18.305 0)
(143.061 -16.0295 0)
(137.261 -12.3317 0)
(100.042 1.32323 0)
(100.536 4.25535 1.70274e-16)
(101.315 8.89257 0)
(102.247 14.9495 -8.6484e-17)
(103.221 21.2152 0)
(104.382 26.1052 -1.05251e-16)
(105.754 28.8095 1.12903e-16)
(107.504 29.2201 1.11951e-16)
(109.471 28.3051 1.0208e-16)
(111.491 27.3529 0)
(113.536 26.8696 0)
(115.634 26.7319 7.73726e-17)
(117.845 26.7166 7.47024e-17)
(120.117 26.8025 0)
(122.528 26.9265 0)
(124.982 27.148 0)
(127.604 27.3822 0)
(130.243 27.7208 1.32657e-16)
(133.094 28.0426 -6.4766e-17)
(135.929 28.4906 0)
(139.038 28.8877 1.22936e-16)
(142.083 29.4499 0)
(145.492 29.9157 5.80779e-17)
(148.767 30.6065 -5.62037e-17)
(152.536 31.1373 0)
(156.064 31.981 -5.26161e-17)
(160.277 32.5742 5.10307e-17)
(164.084 33.6051 0)
(168.855 34.2577 -4.73761e-17)
(172.97 35.5178 -4.51233e-17)
(178.448 36.2261 0)
(182.898 37.7661 0)
(189.285 38.5258 3.98885e-17)
(194.083 40.4023 3.71728e-17)
(201.633 41.2214 0)
(206.784 43.5003 0)
(215.832 44.4093 -3.22246e-17)
(221.315 47.1652 -5.72752e-17)
(232.233 48.3123 0)
(238.056 51.8017 -4.78919e-17)
(251.521 53.608 -2.42161e-17)
(258.198 58.1454 1.9146e-17)
(275.487 60.8042 0)
(284.014 66.2397 0)
(306.843 69.1722 -1.73524e-17)
(318.14 74.358 -1.01466e-17)
(347.667 75.9132 1.46553e-17)
(360.026 79.6932 -4.96899e-18)
(396.031 82.4285 -1.04652e-17)
(411.374 86.2543 -1.11749e-18)
(461.461 92.1445 -6.18528e-18)
(488.163 83.0103 -7.90568e-18)
(556.582 89.3998 1.92772e-18)
(616.928 0.569287 3.62657e-21)
(573.2 -45.1218 1.24051e-19)
(548.814 -61.7904 -1.56745e-17)
(496.275 -69.0729 -2.23532e-18)
(472.686 -65.3601 -9.13763e-18)
(437.271 -62.9988 0)
(423.726 -57.4462 5.22238e-18)
(398.26 -56.0826 4.66932e-18)
(386.773 -51.9203 1.72646e-18)
(366.323 -51.0226 -7.09413e-18)
(356.086 -47.4426 -5.42779e-18)
(339.709 -46.6178 9.41301e-18)
(330.66 -43.805 0)
(317.295 -43.4892 0)
(308.816 -41.6174 1.15157e-17)
(297.276 -41.5949 -1.38333e-17)
(289.02 -40.2508 0)
(278.787 -40.2345 1.64369e-21)
(270.808 -39.1472 -3.27012e-17)
(261.604 -38.9356 1.78584e-17)
(253.966 -37.8657 -1.85298e-17)
(245.667 -37.2813 0)
(238.612 -35.9986 2.07898e-17)
(231.376 -34.9898 0)
(225.22 -33.5856 0)
(219.106 -32.4745 2.42906e-17)
(213.83 -31.2639 2.52596e-17)
(208.59 -30.3467 0)
(203.931 -29.4951 2.73287e-17)
(199.222 -28.8514 -1.35167e-21)
(194.908 -28.3127 0)
(190.477 -27.8206 -3.03024e-17)
(186.384 -27.4388 3.12952e-17)
(182.138 -26.9449 -3.22312e-17)
(178.272 -26.6027 0)
(174.173 -25.9984 0)
(170.573 -25.6283 0)
(166.565 -24.8361 -3.59317e-17)
(163.289 -24.3926 -3.36989e-22)
(159.242 -23.3347 3.75461e-17)
(156.361 -22.7175 3.86152e-17)
(152.029 -21.2775 3.88409e-17)
(149.682 -20.1932 0)
(144.709 -18.2157 3.9504e-17)
(143.178 -15.9306 -4.11309e-17)
(137.429 -12.2581 0)
(100.041 1.30871 0)
(100.527 4.22283 -9.10985e-21)
(101.297 8.84794 -8.30697e-17)
(102.224 14.9001 8.64389e-17)
(103.204 21.1616 -9.48708e-17)
(104.376 26.0454 4.83453e-21)
(105.766 28.74 -1.12694e-16)
(107.532 29.1416 -1.1172e-16)
(109.509 28.2239 -1.01908e-16)
(111.534 27.2728 0)
(113.585 26.7901 0)
(115.687 26.6514 -7.73627e-17)
(117.902 26.6349 0)
(120.178 26.7193 7.27586e-17)
(122.593 26.8419 0)
(125.049 27.062 0)
(127.674 27.2949 0)
(130.316 27.6319 -1.32656e-16)
(133.17 27.9526 0)
(136.008 28.399 0)
(139.119 28.7949 -6.14676e-17)
(142.167 29.3553 5.96807e-17)
(145.579 29.82 -3.37647e-21)
(148.857 30.5085 3.95045e-21)
(152.63 31.0382 -5.45921e-17)
(156.161 31.8792 5.26152e-17)
(160.378 32.4712 0)
(164.189 33.4985 0)
(168.964 34.15 0)
(173.083 35.4057 4.51114e-17)
(178.567 36.1129 0)
(183.021 37.6473 -4.12014e-17)
(189.413 38.4061 0)
(194.217 40.2759 0)
(201.772 41.0945 -3.60499e-17)
(206.93 43.3652 3.29779e-17)
(215.984 44.2743 -3.22114e-17)
(221.477 47.0214 5.72429e-17)
(232.402 48.1691 2.82346e-17)
(238.24 51.6477 2.3931e-17)
(251.715 53.4507 2.42014e-17)
(258.413 57.9712 0)
(275.712 60.6196 2.04295e-17)
(284.26 66.0308 0)
(307.094 68.9474 1.6954e-21)
(318.402 74.1076 6.22e-21)
(347.916 75.6602 -1.46276e-17)
(360.295 79.4287 0)
(396.302 82.1554 1.04558e-17)
(411.685 85.9412 2.23984e-18)
(461.718 91.7725 6.18427e-18)
(488.403 82.5887 -7.90429e-18)
(556.433 88.7745 -1.93434e-18)
(616.283 0.508447 1.1108e-18)
(572.842 -44.7811 -1.24594e-19)
(548.7 -61.4101 0)
(496.317 -68.7072 -2.2389e-18)
(472.815 -65.0666 1.81373e-17)
(437.436 -62.7563 0)
(423.882 -57.2401 -2.59876e-18)
(398.406 -55.8821 0)
(386.909 -51.7356 0)
(366.455 -50.841 7.06888e-18)
(356.213 -47.2763 0)
(339.831 -46.4551 0)
(330.775 -43.654 0)
(317.404 -43.3379 0)
(308.917 -41.4718 -2.29477e-17)
(297.373 -41.4466 1.37883e-17)
(289.114 -40.1065 0)
(278.879 -40.0886 1.58511e-17)
(270.899 -39.0045 1.63184e-17)
(261.696 -38.7922 0)
(254.059 -37.7261 0)
(245.762 -37.1438 0)
(238.708 -35.8674 -2.0765e-17)
(231.472 -34.8645 -2.20911e-17)
(225.314 -33.4681 0)
(219.197 -32.3629 2.42667e-17)
(213.916 -31.1581 0)
(208.671 -30.2446 -2.63548e-17)
(204.007 -29.3957 0)
(199.294 -28.7531 -2.83312e-17)
(194.976 -28.2149 -2.92942e-17)
(190.542 -27.7229 0)
(186.449 -27.3411 -3.12736e-17)
(182.202 -26.8476 0)
(178.336 -26.5055 -3.3232e-17)
(174.237 -25.9024 -3.41088e-17)
(170.64 -25.5321 0)
(166.632 -24.742 -3.59186e-17)
(163.359 -24.2971 3.69688e-17)
(159.314 -23.2424 -3.75401e-17)
(156.438 -22.6211 -3.86163e-17)
(152.112 -21.1865 0)
(149.773 -20.0937 0)
(144.819 -18.1268 -3.95121e-17)
(143.295 -15.8326 4.11442e-17)
(137.596 -12.1852 4.11796e-17)
(100.04 1.29444 0)
(100.518 4.19077 -9.02189e-21)
(101.279 8.80373 8.3044e-17)
(102.202 14.8507 0)
(103.187 21.1077 9.47897e-17)
(104.37 25.9849 1.04981e-16)
(105.777 28.6697 1.12493e-16)
(107.559 29.0625 0)
(109.547 28.1423 0)
(111.578 27.1924 -9.003e-17)
(113.633 26.7104 -8.19402e-17)
(115.74 26.5708 7.73593e-17)
(117.959 26.5529 0)
(120.238 26.6358 -3.20959e-21)
(122.656 26.7571 0)
(125.116 26.9757 6.95113e-17)
(127.744 27.2074 0)
(130.389 27.5429 1.32654e-16)
(133.245 27.8625 0)
(136.086 28.3072 -6.30533e-17)
(139.2 28.702 6.14625e-17)
(142.251 29.2605 -5.96818e-17)
(145.667 29.724 -5.80757e-17)
(148.947 30.4103 5.62002e-17)
(152.724 30.9388 5.4592e-17)
(156.258 31.7771 5.26065e-17)
(160.479 32.3679 0)
(164.294 33.3918 4.89087e-17)
(169.073 34.042 0)
(173.196 35.2933 -4.51088e-17)
(178.685 35.9993 -4.36437e-17)
(183.144 37.5283 4.11974e-17)
(189.541 38.2861 0)
(194.351 40.1492 -3.71469e-17)
(201.912 40.9673 3.60438e-17)
(207.077 43.2299 -3.29707e-17)
(216.136 44.139 3.22025e-17)
(221.639 46.8774 -2.8609e-17)
(232.571 48.0256 -2.82234e-17)
(238.425 51.4932 2.39109e-17)
(251.91 53.293 -2.54663e-22)
(258.628 57.7966 0)
(275.938 60.4346 -1.15725e-22)
(284.507 65.8215 0)
(307.344 68.7222 1.66529e-21)
(318.663 73.857 6.15209e-21)
(348.166 75.407 0)
(360.563 79.164 0)
(396.573 81.8819 0)
(411.996 85.6277 -1.12247e-18)
(461.974 91.4003 0)
(488.64 82.1684 7.9105e-18)
(556.285 88.1535 -1.95518e-18)
(615.639 0.448464 0)
(572.482 -44.4425 0)
(548.585 -61.0314 0)
(496.359 -68.3427 2.23223e-18)
(472.946 -64.7738 -1.91217e-21)
(437.601 -62.5139 0)
(424.037 -57.0338 2.58839e-18)
(398.552 -55.6814 0)
(387.045 -51.5508 1.70406e-18)
(366.588 -50.6593 0)
(356.341 -47.11 5.37786e-18)
(339.954 -46.2924 0)
(330.89 -43.5029 -8.5783e-18)
(317.512 -43.1864 0)
(309.019 -41.326 1.1438e-17)
(297.47 -41.2983 -1.58107e-21)
(289.208 -39.9622 0)
(278.971 -39.9426 1.58177e-17)
(270.991 -38.8619 -1.62863e-17)
(261.788 -38.649 0)
(254.152 -37.5864 0)
(245.857 -37.0064 0)
(238.805 -35.7363 4.14897e-17)
(231.568 -34.7392 2.20707e-17)
(225.409 -33.3504 2.30135e-17)
(219.288 -32.2512 -2.42452e-17)
(214.002 -31.0522 0)
(208.752 -30.1424 2.63337e-17)
(204.083 -29.2962 0)
(199.365 -28.6547 0)
(195.045 -28.117 2.92764e-17)
(190.608 -27.6251 0)
(186.514 -27.2433 6.25148e-17)
(182.266 -26.7503 0)
(178.401 -26.4083 1.30553e-21)
(174.301 -25.8064 1.75026e-21)
(170.706 -25.4359 0)
(166.699 -24.648 3.59104e-17)
(163.43 -24.2017 0)
(159.387 -23.1502 0)
(156.516 -22.5247 3.86166e-17)
(152.195 -21.0957 0)
(149.864 -19.9946 0)
(144.928 -18.0382 0)
(143.413 -15.7356 0)
(137.762 -12.1129 -4.119e-17)
(100.039 1.28042 -9.02094e-17)
(100.509 4.15917 -8.5076e-17)
(101.262 8.75993 0)
(102.181 14.8015 0)
(103.171 21.0535 0)
(104.365 25.9239 0)
(105.788 28.5988 0)
(107.586 28.9828 0)
(109.584 28.0603 1.01548e-16)
(111.621 27.1117 1.79892e-16)
(113.681 26.6304 1.63827e-16)
(115.792 26.4899 0)
(118.016 26.4707 0)
(120.299 26.5521 -3.19829e-21)
(122.72 26.6721 0)
(125.183 26.8892 -6.9515e-17)
(127.814 27.1198 0)
(130.462 27.4537 -6.63282e-17)
(133.321 27.7721 0)
(136.164 28.2152 6.30554e-17)
(139.282 28.6089 -3.32173e-21)
(142.335 29.1655 0)
(145.754 29.6279 -5.80701e-17)
(149.037 30.312 5.61929e-17)
(152.818 30.8393 0)
(156.355 31.6748 -5.26063e-17)
(160.58 32.2643 -5.10149e-17)
(164.398 33.2848 -4.89077e-17)
(169.182 33.9338 0)
(173.31 35.1807 4.5098e-17)
(178.803 35.8856 2.74574e-21)
(183.267 37.409 -4.1185e-17)
(189.669 38.1659 3.98648e-17)
(194.484 40.0223 7.42795e-17)
(202.051 40.8398 3.60344e-17)
(207.223 43.0944 0)
(216.288 44.0035 0)
(221.801 46.733 0)
(232.74 47.8818 0)
(238.609 51.3384 -4.43952e-21)
(252.104 53.1349 -2.4178e-17)
(258.843 57.6216 1.90959e-17)
(276.164 60.2491 -2.04043e-17)
(284.753 65.6117 0)
(307.595 68.4967 1.63927e-21)
(318.924 73.6061 1.00875e-17)
(348.415 75.1536 0)
(360.833 78.899 0)
(396.844 81.6078 0)
(412.306 85.3139 0)
(462.229 91.0282 6.17187e-18)
(488.875 81.7495 0)
(556.138 87.5368 -7.1051e-21)
(614.998 0.389347 0)
(572.12 -44.1062 0)
(548.466 -60.6543 0)
(496.401 -67.9793 0)
(473.078 -64.4817 -1.82714e-21)
(437.766 -62.2715 2.82316e-18)
(424.193 -56.8273 -2.57874e-18)
(398.698 -55.4806 -4.63181e-18)
(387.182 -51.3659 -1.69943e-18)
(366.722 -50.4776 -7.02731e-18)
(356.469 -46.9436 -1.07211e-17)
(340.077 -46.1295 0)
(331.006 -43.3517 3.44342e-21)
(317.621 -43.0349 -1.1549e-17)
(309.121 -41.1802 0)
(297.567 -41.15 -1.37211e-17)
(289.303 -39.8178 0)
(279.064 -39.7967 -3.15831e-17)
(271.084 -38.7193 3.12566e-21)
(261.88 -38.5057 1.77831e-17)
(254.246 -37.4468 0)
(245.952 -36.869 0)
(238.902 -35.6052 -2.07276e-17)
(231.665 -34.6139 -2.2054e-17)
(225.505 -33.2327 -2.29954e-17)
(219.379 -32.1394 0)
(214.089 -30.9462 -2.51935e-17)
(208.833 -30.04 0)
(204.16 -29.1966 0)
(199.437 -28.5562 -2.82919e-17)
(195.114 -28.019 0)
(190.674 -27.5272 0)
(186.58 -27.1455 -3.12438e-17)
(182.33 -26.6531 0)
(178.466 -26.311 3.32079e-17)
(174.366 -25.7104 6.8172e-17)
(170.773 -25.3398 0)
(166.767 -24.554 3.59015e-17)
(163.501 -24.1063 -3.69601e-17)
(159.459 -23.0582 0)
(156.594 -22.4285 0)
(152.279 -21.0051 0)
(149.956 -19.8958 0)
(145.037 -17.95 -3.95355e-17)
(143.53 -15.6394 -4.11852e-17)
(137.928 -12.0412 0)
(100.038 1.26665 9.02188e-17)
(100.5 4.128 8.50454e-17)
(101.245 8.71653 0)
(102.16 14.7524 0)
(103.156 20.9991 -9.46111e-17)
(104.361 25.8624 1.047e-16)
(105.8 28.5272 -1.12074e-16)
(107.612 28.9025 0)
(109.621 27.9779 -1.01372e-16)
(111.664 27.0308 -8.98615e-17)
(113.729 26.5501 -8.1886e-17)
(115.845 26.4087 7.73428e-17)
(118.072 26.3883 0)
(120.359 26.4682 -7.27647e-17)
(122.784 26.587 0)
(125.249 26.8026 0)
(127.883 27.0319 -6.79687e-17)
(130.534 27.3644 0)
(133.396 27.6816 0)
(136.242 28.123 0)
(139.363 28.5155 -1.22922e-16)
(142.419 29.0703 0)
(145.841 29.5315 5.80713e-17)
(149.127 30.2134 -5.61938e-17)
(152.911 30.7395 0)
(156.452 31.5722 0)
(160.681 32.1606 5.10146e-17)
(164.503 33.1775 0)
(169.291 33.8253 0)
(173.423 35.0679 -4.31205e-21)
(178.921 35.7715 8.72701e-17)
(183.389 37.2895 4.44259e-21)
(189.797 38.0454 -3.98614e-17)
(194.618 39.8951 -3.71333e-17)
(202.19 40.712 -1.98923e-21)
(207.37 42.9585 -3.29443e-17)
(216.44 43.8676 0)
(221.963 46.5883 0)
(232.909 47.7376 0)
(238.794 51.1832 -2.38879e-17)
(252.299 52.9763 2.41681e-17)
(259.058 57.4461 -1.90872e-17)
(276.39 60.0631 2.03943e-17)
(285 65.4014 0)
(307.845 68.2708 1.61693e-21)
(319.185 73.3548 0)
(348.665 74.8998 0)
(361.102 78.6336 -4.90292e-18)
(397.116 81.3334 -1.04126e-17)
(412.615 84.9998 0)
(462.483 90.656 -3.83936e-21)
(489.108 81.3319 0)
(555.991 86.9245 1.97486e-18)
(614.359 0.331107 1.11614e-18)
(571.756 -43.7721 0)
(548.345 -60.2787 0)
(496.442 -67.617 0)
(473.21 -64.1903 -8.8843e-18)
(437.932 -62.0293 -2.80883e-18)
(424.348 -56.6205 -2.57106e-18)
(398.844 -55.2796 4.62067e-18)
(387.32 -51.1809 1.68813e-18)
(366.856 -50.2959 7.01114e-18)
(356.598 -46.7771 3.8688e-21)
(340.2 -45.9666 9.2958e-18)
(331.122 -43.2004 8.52871e-18)
(317.73 -42.8832 1.15224e-17)
(309.224 -41.0342 0)
(297.665 -41.0016 0)
(289.398 -39.6734 0)
(279.158 -39.6507 3.15371e-17)
(271.177 -38.5767 1.62433e-17)
(261.973 -38.3625 -1.7767e-17)
(254.341 -37.3073 0)
(246.048 -36.7317 0)
(239 -35.4741 0)
(231.762 -34.4885 4.40783e-17)
(225.6 -33.1149 0)
(219.47 -32.0275 -2.42114e-17)
(214.175 -30.84 2.51773e-17)
(208.914 -29.9375 0)
(204.236 -29.0969 -2.72474e-17)
(199.509 -28.4575 1.35012e-21)
(195.183 -27.9209 0)
(190.74 -27.4294 3.02314e-17)
(186.645 -27.0477 -3.12299e-17)
(182.394 -26.5557 0)
(178.532 -26.2138 0)
(174.431 -25.6144 -3.4078e-17)
(170.84 -25.2436 3.51277e-17)